<LesHouchesEvents version="1.0">
<!--
File generated with PYTHIA 6.420
-->
<init>
    2212    2212  7.000000E+03  7.000000E+03    -9    -9    -9    -9     3     1
  0.000000E+00  0.000000E+00  1.000000E+00   440
</init>
<event>
     5   440  1.000000E+00 -1.000000E+00 -1.000000E+00 -1.000000E+00
    2212   -1    0    0    0    0  0.0000000000E+00  0.0000000000E+00  6.9999999371E+03  7.0000000000E+03  9.3827000000E-01 0. 9.
    2212   -1    0    0    0    0  0.0000000000E+00  0.0000000000E+00 -6.9999999371E+03  7.0000000000E+03  9.3827000000E-01 0. 9.
    2212    1    1    2    0    0  1.0465284279E-01 -1.9024750093E-02  6.3594002125E+03  6.3594002826E+03  9.3827000000E-01 0. 9.
    2212    1    1    2    0    0  1.1484820010E-01 -1.0141763935E-02 -6.9943801842E+03  6.9943802480E+03  9.3827000000E-01 0. 9.
      25    1    1    2    0    0 -2.1950104289E-01  2.9166514028E-02  6.3497997170E+02  6.4621947781E+02  1.2000000000E+02 0. 9.
</event>
<event>
     5   440  1.000000E+00 -1.000000E+00 -1.000000E+00 -1.000000E+00
    2212   -1    0    0    0    0  0.0000000000E+00  0.0000000000E+00  6.9999999371E+03  7.0000000000E+03  9.3827000000E-01 0. 9.
    2212   -1    0    0    0    0  0.0000000000E+00  0.0000000000E+00 -6.9999999371E+03  7.0000000000E+03  9.3827000000E-01 0. 9.
    2212    1    1    2    0    0 -1.6711640227E-01  2.8586640430E-01  6.8975143273E+03  6.8975143991E+03  9.3827000000E-01 0. 9.
    2212    1    1    2    0    0 -2.2445440822E-01 -1.2111011452E-01 -6.9648726148E+03  6.9648726826E+03  9.3827000000E-01 0. 9.
      25    1    1    2    0    0  3.9157081049E-01 -1.6475628978E-01  6.7358287446E+01  1.3761293311E+02  1.2000000000E+02 0. 9.
</event>
<event>
     5   440  1.000000E+00 -1.000000E+00 -1.000000E+00 -1.000000E+00
    2212   -1    0    0    0    0  0.0000000000E+00  0.0000000000E+00  6.9999999371E+03  7.0000000000E+03  9.3827000000E-01 0. 9.
    2212   -1    0    0    0    0  0.0000000000E+00  0.0000000000E+00 -6.9999999371E+03  7.0000000000E+03  9.3827000000E-01 0. 9.
    2212    1    1    2    0    0  5.2813673177E-02  1.5996563405E-01  6.9505452870E+03  6.9505453523E+03  9.3827000000E-01 0. 9.
    2212    1    1    2    0    0 -7.1702968373E-02 -7.8724959404E-02 -6.9272059397E+03  6.9272060041E+03  9.3827000000E-01 0. 9.
      25    1    1    2    0    0  1.8889295196E-02 -8.1240674648E-02 -2.3339347221E+01  1.2224864860E+02  1.2000000000E+02 0. 9.
</event>
<event>
     5   440  1.000000E+00 -1.000000E+00 -1.000000E+00 -1.000000E+00
    2212   -1    0    0    0    0  0.0000000000E+00  0.0000000000E+00  6.9999999371E+03  7.0000000000E+03  9.3827000000E-01 0. 9.
    2212   -1    0    0    0    0  0.0000000000E+00  0.0000000000E+00 -6.9999999371E+03  7.0000000000E+03  9.3827000000E-01 0. 9.
    2212    1    1    2    0    0 -4.5155438587E-01 -1.7900313210E-01  6.9713221750E+03  6.9713222550E+03  9.3827000000E-01 0. 9.
    2212    1    1    2    0    0  2.5911076543E-01 -6.5574049867E-01 -6.8744607345E+03  6.8744608347E+03  9.3827000000E-01 0. 9.
      25    1    1    2    0    0  1.9244362044E-01  8.3474363077E-01 -9.6861440414E+01  1.5421696557E+02  1.2000000000E+02 0. 9.
</event>
<event>
     5   440  1.000000E+00 -1.000000E+00 -1.000000E+00 -1.000000E+00
    2212   -1    0    0    0    0  0.0000000000E+00  0.0000000000E+00  6.9999999371E+03  7.0000000000E+03  9.3827000000E-01 0. 9.
    2212   -1    0    0    0    0  0.0000000000E+00  0.0000000000E+00 -6.9999999371E+03  7.0000000000E+03  9.3827000000E-01 0. 9.
    2212    1    1    2    0    0 -5.4645065346E-01  7.3043032185E-01  6.9657973320E+03  6.9657974549E+03  9.3827000000E-01 0. 9.
    2212    1    1    2    0    0 -4.6248701077E-01  1.8676593273E-01 -6.8947312092E+03  6.8947312911E+03  9.3827000000E-01 0. 9.
      25    1    1    2    0    0  1.0089376642E+00 -9.1719625458E-01 -7.1066122801E+01  1.3947133402E+02  1.2000000000E+02 0. 9.
</event>
<event>
     5   440  1.000000E+00 -1.000000E+00 -1.000000E+00 -1.000000E+00
    2212   -1    0    0    0    0  0.0000000000E+00  0.0000000000E+00  6.9999999371E+03  7.0000000000E+03  9.3827000000E-01 0. 9.
    2212   -1    0    0    0    0  0.0000000000E+00  0.0000000000E+00 -6.9999999371E+03  7.0000000000E+03  9.3827000000E-01 0. 9.
    2212    1    1    2    0    0 -1.6770972224E-01  2.3305814993E-01  6.9963000065E+03  6.9963000753E+03  9.3827000000E-01 0. 9.
    2212    1    1    2    0    0 -2.2203323132E-01  2.6806584677E-01 -6.0269815156E+03  6.0269815986E+03  9.3827000000E-01 0. 9.
      25    1    1    2    0    0  3.8974295357E-01 -5.0112399670E-01 -9.6931849089E+02  9.7671835235E+02  1.2000000000E+02 0. 9.
</event>
<event>
     5   440  1.000000E+00 -1.000000E+00 -1.000000E+00 -1.000000E+00
    2212   -1    0    0    0    0  0.0000000000E+00  0.0000000000E+00  6.9999999371E+03  7.0000000000E+03  9.3827000000E-01 0. 9.
    2212   -1    0    0    0    0  0.0000000000E+00  0.0000000000E+00 -6.9999999371E+03  7.0000000000E+03  9.3827000000E-01 0. 9.
    2212    1    1    2    0    0  1.4622389978E-01 -6.1669674367E-01  6.1383316340E+03  6.1383317384E+03  9.3827000000E-01 0. 9.
    2212    1    1    2    0    0  2.0115841846E-01  1.8015455008E-03 -6.9958218507E+03  6.9958219165E+03  9.3827000000E-01 0. 9.
      25    1    1    2    0    0 -3.4738231825E-01  6.1489519817E-01  8.5749021673E+02  8.6584638970E+02  1.2000000000E+02 0. 9.
</event>
<event>
     5   440  1.000000E+00 -1.000000E+00 -1.000000E+00 -1.000000E+00
    2212   -1    0    0    0    0  0.0000000000E+00  0.0000000000E+00  6.9999999371E+03  7.0000000000E+03  9.3827000000E-01 0. 9.
    2212   -1    0    0    0    0  0.0000000000E+00  0.0000000000E+00 -6.9999999371E+03  7.0000000000E+03  9.3827000000E-01 0. 9.
    2212    1    1    2    0    0  9.1953201049E-01  2.0216734613E-01  6.9866298394E+03  6.9866299658E+03  9.3827000000E-01 0. 9.
    2212    1    1    2    0    0  5.4899745982E-02  5.5021217965E-01 -6.7307140347E+03  6.7307141228E+03  9.3827000000E-01 0. 9.
      25    1    1    2    0    0 -9.7443175647E-01 -7.5237952577E-01 -2.5591580466E+02  2.8265600058E+02  1.2000000000E+02 0. 9.
</event>
<event>
     5   440  1.000000E+00 -1.000000E+00 -1.000000E+00 -1.000000E+00
    2212   -1    0    0    0    0  0.0000000000E+00  0.0000000000E+00  6.9999999371E+03  7.0000000000E+03  9.3827000000E-01 0. 9.
    2212   -1    0    0    0    0  0.0000000000E+00  0.0000000000E+00 -6.9999999371E+03  7.0000000000E+03  9.3827000000E-01 0. 9.
    2212    1    1    2    0    0 -1.5601695424E-01  2.7985924878E-01  6.9898620856E+03  6.9898621559E+03  9.3827000000E-01 0. 9.
    2212    1    1    2    0    0 -5.7120824346E-01  6.3982497512E-01 -6.6448612188E+03  6.6448613404E+03  9.3827000000E-01 0. 9.
      25    1    1    2    0    0  7.2722519770E-01 -9.1968422390E-01 -3.4500086680E+02  3.6527657024E+02  1.2000000000E+02 0. 9.
</event>
<event>
     5   440  1.000000E+00 -1.000000E+00 -1.000000E+00 -1.000000E+00
    2212   -1    0    0    0    0  0.0000000000E+00  0.0000000000E+00  6.9999999371E+03  7.0000000000E+03  9.3827000000E-01 0. 9.
    2212   -1    0    0    0    0  0.0000000000E+00  0.0000000000E+00 -6.9999999371E+03  7.0000000000E+03  9.3827000000E-01 0. 9.
    2212    1    1    2    0    0 -1.2102927542E-01 -6.6995729161E-03  6.8278715648E+03  6.8278716303E+03  9.3827000000E-01 0. 9.
    2212    1    1    2    0    0  3.1206120288E-01 -8.8841868553E-01 -6.9790840979E+03  6.9790842245E+03  9.3827000000E-01 0. 9.
      25    1    1    2    0    0 -1.9103192745E-01  8.9511825845E-01  1.5121253309E+02  1.9304421227E+02  1.2000000000E+02 0. 9.
</event>
</LesHouchesEvents>
