<LesHouchesEvents version="1.0">
<!--
File generated with PYTHIA 6.420
-->
<init>
    2212    2212  5.000000E+03  5.000000E+03     0     0     7     7     3     1
  1.892607E-02  5.984950E-04  1.000000E+00   194
</init>
<event>
     4   194  1.000000E+00  4.640368E+02  7.907522E-03  1.015531E-01
      -2   -1    0    0    0  101  0.0000000000E+00  0.0000000000E+00  7.5578142754E+01  7.5578142754E+01  0.0000000000E+00 0. 9.
       2   -1    0    0  101    0  0.0000000000E+00  0.0000000000E+00 -2.8573785902E+03  2.8573785902E+03  0.0000000000E+00 0. 9.
 -4110000    1    1    2    0    0  2.4884226761E+02 -2.5180880019E+02 -1.3119941500E+03  1.3916388884E+03  3.0000000000E+02 0. 9.
 4110000    1    1    2    0    0 -2.4884226761E+02  2.5180880019E+02 -1.4698062974E+03  1.5413178445E+03  3.0000000000E+02 0. 9.
</event>
<event>
     4   194  1.000000E+00  3.742780E+02  7.888218E-03  1.043322E-01
      -2   -1    0    0    0  101  0.0000000000E+00  0.0000000000E+00  7.7272493014E+02  7.7272493014E+02  0.0000000000E+00 0. 9.
       2   -1    0    0  101    0  0.0000000000E+00  0.0000000000E+00 -3.0353619767E+02  3.0353619767E+02  0.0000000000E+00 0. 9.
 -4110000    1    1    2    0    0 -1.3048955080E+02 -1.8181443378E+02  5.7610769658E+02  6.8701098190E+02  3.0000000000E+02 0. 9.
 4110000    1    1    2    0    0  1.3048955080E+02  1.8181443378E+02 -1.0691896411E+02  3.8925014590E+02  3.0000000000E+02 0. 9.
</event>
<event>
     4   194  1.000000E+00  3.296266E+02  7.876854E-03  1.060472E-01
       2   -1    0    0  101    0  0.0000000000E+00  0.0000000000E+00  1.8471836488E+03  1.8471836488E+03  0.0000000000E+00 0. 9.
      -2   -1    0    0    0  101  0.0000000000E+00  0.0000000000E+00 -5.9413787891E+01  5.9413787891E+01  0.0000000000E+00 0. 9.
 4110000    1    1    2    0    0 -7.6683578728E+01 -1.1301910267E+02  9.8908472015E+02  1.0425652365E+03  3.0000000000E+02 0. 9.
 -4110000    1    1    2    0    0  7.6683578728E+01  1.1301910267E+02  7.9868514072E+02  8.6403220011E+02  3.0000000000E+02 0. 9.
</event>
<event>
     4   194  1.000000E+00  4.023344E+02  7.894698E-03  1.033808E-01
       1   -1    0    0  101    0  0.0000000000E+00  0.0000000000E+00  1.0418752443E+03  1.0418752443E+03  0.0000000000E+00 0. 9.
      -1   -1    0    0    0  101  0.0000000000E+00  0.0000000000E+00 -1.7552382697E+02  1.7552382697E+02  0.0000000000E+00 0. 9.
 4110000    1    1    2    0    0 -3.9698820761E+01  2.6513577312E+02  6.3945071018E+02  7.5549333903E+02  3.0000000000E+02 0. 9.
 -4110000    1    1    2    0    0  3.9698820761E+01 -2.6513577312E+02  2.2690070712E+02  4.6190573221E+02  3.0000000000E+02 0. 9.
</event>
<event>
     4   194  1.000000E+00  4.061204E+02  7.895539E-03  1.032588E-01
      -1   -1    0    0    0  101  0.0000000000E+00  0.0000000000E+00  1.9097670717E+02  1.9097670717E+02  0.0000000000E+00 0. 9.
       1   -1    0    0  101    0  0.0000000000E+00  0.0000000000E+00 -1.0287802805E+03  1.0287802805E+03  0.0000000000E+00 0. 9.
 -4110000    1    1    2    0    0 -2.5998209913E+02  8.5691669068E+01 -1.7454863739E+02  4.4204183154E+02  3.0000000000E+02 0. 9.
 4110000    1    1    2    0    0  2.5998209913E+02 -8.5691669068E+01 -6.6325493593E+02  7.7771515611E+02  3.0000000000E+02 0. 9.
</event>
<event>
     4   194  1.000000E+00  3.881930E+02  7.891489E-03  1.038496E-01
       2   -1    0    0  101    0  0.0000000000E+00  0.0000000000E+00  8.6979141379E+02  8.6979141379E+02  0.0000000000E+00 0. 9.
      -2   -1    0    0    0  101  0.0000000000E+00  0.0000000000E+00 -2.8412475866E+02  2.8412475866E+02  0.0000000000E+00 0. 9.
 4110000    1    1    2    0    0  2.2990141120E+02  8.8538979495E+01  6.5324641902E+02  7.5988465817E+02  3.0000000000E+02 0. 9.
 -4110000    1    1    2    0    0 -2.2990141120E+02 -8.8538979495E+01 -6.7579763881E+01  3.9403151428E+02  3.0000000000E+02 0. 9.
</event>
<event>
     4   194  1.000000E+00  3.502311E+02  7.882274E-03  1.052217E-01
       2   -1    0    0  101    0  0.0000000000E+00  0.0000000000E+00  6.1039932447E+02  6.1039932447E+02  0.0000000000E+00 0. 9.
      -2   -1    0    0    0  101  0.0000000000E+00  0.0000000000E+00 -2.1817298756E+02  2.1817298756E+02  0.0000000000E+00 0. 9.
 4110000    1    1    2    0    0  5.0340531110E+00  1.8065560659E+02  7.9724173399E+01  3.5919038643E+02  3.0000000000E+02 0. 9.
 -4110000    1    1    2    0    0 -5.0340531110E+00 -1.8065560659E+02  3.1250216351E+02  4.6938192560E+02  3.0000000000E+02 0. 9.
</event>
<event>
     4   194  1.000000E+00  4.818941E+02  7.910922E-03  1.010801E-01
       2   -1    0    0  101    0  0.0000000000E+00  0.0000000000E+00  1.3319221309E+03  1.3319221309E+03  0.0000000000E+00 0. 9.
      -2   -1    0    0    0  101  0.0000000000E+00  0.0000000000E+00 -2.5726903151E+02  2.5726903151E+02  0.0000000000E+00 0. 9.
 4110000    1    1    2    0    0 -3.5051202747E+02  1.3915180237E+02  9.8843086291E+02  1.0996442499E+03  3.0000000000E+02 0. 9.
 -4110000    1    1    2    0    0  3.5051202747E+02 -1.3915180237E+02  8.6222236457E+01  4.8954691253E+02  3.0000000000E+02 0. 9.
</event>
<event>
     4   194  1.000000E+00  3.511707E+02  7.882513E-03  1.051855E-01
       2   -1    0    0  101    0  0.0000000000E+00  0.0000000000E+00  1.6976541406E+03  1.6976541406E+03  0.0000000000E+00 0. 9.
      -2   -1    0    0    0  101  0.0000000000E+00  0.0000000000E+00 -7.3076694141E+01  7.3076694141E+01  0.0000000000E+00 0. 9.
 4110000    1    1    2    0    0 -1.6917964519E+02 -6.8550048316E+01  8.8057971675E+02  9.4801977776E+02  3.0000000000E+02 0. 9.
 -4110000    1    1    2    0    0  1.6917964519E+02  6.8550048316E+01  7.4399772973E+02  8.2271105701E+02  3.0000000000E+02 0. 9.
</event>
<event>
     4   194  1.000000E+00  5.338682E+02  7.920161E-03  9.981910E-02
      -2   -1    0    0    0  101  0.0000000000E+00  0.0000000000E+00  7.3256915413E+02  7.3256915413E+02  0.0000000000E+00 0. 9.
       2   -1    0    0  101    0  0.0000000000E+00  0.0000000000E+00 -3.9160300894E+02  3.9160300894E+02  0.0000000000E+00 0. 9.
 -4110000    1    1    2    0    0 -4.5473610138E+01 -4.3925780386E+02  1.2521096205E+02  5.4835486000E+02  3.0000000000E+02 0. 9.
 4110000    1    1    2    0    0  4.5473610138E+01  4.3925780386E+02  2.1575518314E+02  5.7581730307E+02  3.0000000000E+02 0. 9.
</event>
<event>
     4   194  1.000000E+00  3.461006E+02  7.881213E-03  1.053822E-01
      -1   -1    0    0    0  101  0.0000000000E+00  0.0000000000E+00  7.6843699357E+01  7.6843699357E+01  0.0000000000E+00 0. 9.
       1   -1    0    0  101    0  0.0000000000E+00  0.0000000000E+00 -1.7320506611E+03  1.7320506611E+03  0.0000000000E+00 0. 9.
 -4110000    1    1    2    0    0 -2.4687006174E+01  1.7081036095E+02 -5.4157245885E+02  6.4271794425E+02  3.0000000000E+02 0. 9.
 4110000    1    1    2    0    0  2.4687006174E+01 -1.7081036095E+02 -1.1136345029E+03  1.1661764162E+03  3.0000000000E+02 0. 9.
</event>
<event>
     4   194  1.000000E+00  3.107756E+02  7.871597E-03  1.068615E-01
       2   -1    0    0  101    0  0.0000000000E+00  0.0000000000E+00  2.0234483932E+03  2.0234483932E+03  0.0000000000E+00 0. 9.
      -2   -1    0    0    0  101  0.0000000000E+00  0.0000000000E+00 -5.8196838908E+01  5.8196838908E+01  0.0000000000E+00 0. 9.
 4110000    1    1    2    0    0  7.9845931620E+01  1.4355328243E+01  1.4240047670E+03  1.4575222210E+03  3.0000000000E+02 0. 9.
 -4110000    1    1    2    0    0 -7.9845931620E+01 -1.4355328243E+01  5.4124678725E+02  6.2412301108E+02  3.0000000000E+02 0. 9.
</event>
<event>
     4   194  1.000000E+00  3.404513E+02  7.879741E-03  1.056057E-01
      -4   -1    0    0    0  101  0.0000000000E+00  0.0000000000E+00  5.1846590355E+02  5.1846590355E+02  0.0000000000E+00 0. 9.
       4   -1    0    0  101    0  0.0000000000E+00  0.0000000000E+00 -4.9362684685E+02  4.9362684685E+02  0.0000000000E+00 0. 9.
 -4110000    1    1    2    0    0 -9.2322905585E+01  1.3184675127E+02  3.8672688005E+02  5.1523272845E+02  3.0000000000E+02 0. 9.
 4110000    1    1    2    0    0  9.2322905585E+01 -1.3184675127E+02 -3.6188782335E+02  4.9686002194E+02  3.0000000000E+02 0. 9.
</event>
<event>
     4   194  1.000000E+00  3.018961E+02  7.869012E-03  1.072670E-01
       1   -1    0    0  101    0  0.0000000000E+00  0.0000000000E+00  3.9405227905E+02  3.9405227905E+02  0.0000000000E+00 0. 9.
      -1   -1    0    0    0  101  0.0000000000E+00  0.0000000000E+00 -2.4081677287E+02  2.4081677287E+02  0.0000000000E+00 0. 9.
 4110000    1    1    2    0    0  2.0753728053E+01 -2.6655378602E+01  1.3488145089E+01  3.0219721457E+02  3.0000000000E+02 0. 9.
 -4110000    1    1    2    0    0 -2.0753728053E+01  2.6655378602E+01  1.3974736109E+02  3.3267183736E+02  3.0000000000E+02 0. 9.
</event>
<event>
     4   194  1.000000E+00  3.519977E+02  7.882724E-03  1.051538E-01
       2   -1    0    0  101    0  0.0000000000E+00  0.0000000000E+00  2.5881373664E+02  2.5881373664E+02  0.0000000000E+00 0. 9.
      -2   -1    0    0    0  101  0.0000000000E+00  0.0000000000E+00 -5.2794809055E+02  5.2794809055E+02  0.0000000000E+00 0. 9.
 4110000    1    1    2    0    0  3.1672521496E+01 -1.8138146176E+02 -2.5467514427E+02  4.3446727425E+02  3.0000000000E+02 0. 9.
 -4110000    1    1    2    0    0 -3.1672521496E+01  1.8138146176E+02 -1.4459209643E+01  3.5229455294E+02  3.0000000000E+02 0. 9.
</event>
<event>
     4   194  1.000000E+00  3.175514E+02  7.873522E-03  1.065618E-01
      -1   -1    0    0    0  101  0.0000000000E+00  0.0000000000E+00  1.4565677192E+02  1.4565677192E+02  0.0000000000E+00 0. 9.
       1   -1    0    0  101    0  0.0000000000E+00  0.0000000000E+00 -1.2324311766E+03  1.2324311766E+03  0.0000000000E+00 0. 9.
 -4110000    1    1    2    0    0 -1.0333497183E+01  1.0359597160E+02 -8.7231374707E+01  3.2931477226E+02  3.0000000000E+02 0. 9.
 4110000    1    1    2    0    0  1.0333497183E+01 -1.0359597160E+02 -9.9954302996E+02  1.0487731763E+03  3.0000000000E+02 0. 9.
</event>
<event>
     4   194  1.000000E+00  3.391261E+02  7.879393E-03  1.056588E-01
       1   -1    0    0  101    0  0.0000000000E+00  0.0000000000E+00  5.7966709875E+02  5.7966709875E+02  0.0000000000E+00 0. 9.
      -1   -1    0    0    0  101  0.0000000000E+00  0.0000000000E+00 -2.0099389646E+02  2.0099389646E+02  0.0000000000E+00 0. 9.
 4110000    1    1    2    0    0 -1.5633768609E+02  2.3770118211E+01  2.3367087767E+02  4.1183561002E+02  3.0000000000E+02 0. 9.
 -4110000    1    1    2    0    0  1.5633768609E+02 -2.3770118211E+01  1.4500232463E+02  3.6882538519E+02  3.0000000000E+02 0. 9.
</event>
<event>
     4   194  1.000000E+00  5.031754E+02  7.914818E-03  1.005442E-01
       2   -1    0    0  101    0  0.0000000000E+00  0.0000000000E+00  9.3880056312E+02  9.3880056312E+02  0.0000000000E+00 0. 9.
      -2   -1    0    0    0  101  0.0000000000E+00  0.0000000000E+00 -2.7835429044E+02  2.7835429044E+02  0.0000000000E+00 0. 9.
 4110000    1    1    2    0    0  8.2822070064E+01  3.9538087265E+02  2.2285570949E+02  5.5031826882E+02  3.0000000000E+02 0. 9.
 -4110000    1    1    2    0    0 -8.2822070064E+01 -3.9538087265E+02  4.3759056319E+02  6.6683658474E+02  3.0000000000E+02 0. 9.
</event>
<event>
     4   194  1.000000E+00  3.312796E+02  7.877301E-03  1.059786E-01
       2   -1    0    0  101    0  0.0000000000E+00  0.0000000000E+00  1.0160565206E+02  1.0160565206E+02  0.0000000000E+00 0. 9.
      -2   -1    0    0    0  101  0.0000000000E+00  0.0000000000E+00 -1.0939874473E+03  1.0939874473E+03  0.0000000000E+00 0. 9.
 4110000    1    1    2    0    0 -1.1603967331E-01  1.4052105360E+02 -4.2888338887E+02  5.4192909243E+02  3.0000000000E+02 0. 9.
 -4110000    1    1    2    0    0  1.1603967331E-01 -1.4052105360E+02 -5.6349840639E+02  6.5366400694E+02  3.0000000000E+02 0. 9.
</event>
<event>
     4   194  1.000000E+00  5.941822E+02  7.929839E-03  9.853452E-02
      -2   -1    0    0    0  101  0.0000000000E+00  0.0000000000E+00  2.0930152386E+02  2.0930152386E+02  0.0000000000E+00 0. 9.
       2   -1    0    0  101    0  0.0000000000E+00  0.0000000000E+00 -1.9761464516E+03  1.9761464516E+03  0.0000000000E+00 0. 9.
 -4110000    1    1    2    0    0 -1.3005464518E+02 -4.9612324143E+02 -4.6530296950E+02  7.5469154947E+02  3.0000000000E+02 0. 9.
 4110000    1    1    2    0    0  1.3005464518E+02  4.9612324143E+02 -1.3015419582E+03  1.4307564259E+03  3.0000000000E+02 0. 9.
</event>
<event>
     4   194  1.000000E+00  3.787466E+02  7.889281E-03  1.041748E-01
      -1   -1    0    0    0  101  0.0000000000E+00  0.0000000000E+00  1.5171193282E+02  1.5171193282E+02  0.0000000000E+00 0. 9.
       1   -1    0    0  101    0  0.0000000000E+00  0.0000000000E+00 -9.7553056864E+02  9.7553056864E+02  0.0000000000E+00 0. 9.
 -4110000    1    1    2    0    0  1.3643971077E+02 -1.8663645378E+02 -5.1074063910E+02  6.3584979436E+02  3.0000000000E+02 0. 9.
 4110000    1    1    2    0    0 -1.3643971077E+02  1.8663645378E+02 -3.1307799672E+02  4.9139270710E+02  3.0000000000E+02 0. 9.
</event>
<event>
     4   194  1.000000E+00  3.222290E+02  7.874827E-03  1.063596E-01
      -2   -1    0    0    0  101  0.0000000000E+00  0.0000000000E+00  7.3725330347E+02  7.3725330347E+02  0.0000000000E+00 0. 9.
       2   -1    0    0  101    0  0.0000000000E+00  0.0000000000E+00 -2.5269104981E+02  2.5269104981E+02  0.0000000000E+00 0. 9.
 -4110000    1    1    2    0    0 -1.1639069858E+02  1.6873519866E+01 -8.7036088228E+01  3.3377655856E+02  3.0000000000E+02 0. 9.
 4110000    1    1    2    0    0  1.1639069858E+02 -1.6873519866E+01  5.7159834189E+02  6.5616779473E+02  3.0000000000E+02 0. 9.
</event>
<event>
     4   194  1.000000E+00  3.261537E+02  7.875908E-03  1.061928E-01
       1   -1    0    0  101    0  0.0000000000E+00  0.0000000000E+00  1.2946782072E+03  1.2946782072E+03  0.0000000000E+00 0. 9.
      -1   -1    0    0    0  101  0.0000000000E+00  0.0000000000E+00 -9.1132245953E+01  9.1132245953E+01  0.0000000000E+00 0. 9.
 4110000    1    1    2    0    0  1.1135334491E+02  6.3060688656E+01  8.1913635255E+02  8.8168054416E+02  3.0000000000E+02 0. 9.
 -4110000    1    1    2    0    0 -1.1135334491E+02 -6.3060688656E+01  3.8440960867E+02  5.0412990896E+02  3.0000000000E+02 0. 9.
</event>
<event>
     4   194  1.000000E+00  3.222241E+02  7.874826E-03  1.063598E-01
      -1   -1    0    0    0  101  0.0000000000E+00  0.0000000000E+00  9.3660379171E+01  9.3660379171E+01  0.0000000000E+00 0. 9.
       1   -1    0    0  101    0  0.0000000000E+00  0.0000000000E+00 -1.1785772347E+03  1.1785772347E+03  0.0000000000E+00 0. 9.
 -4110000    1    1    2    0    0  1.1683628952E+02  1.3328234888E+01 -3.8741451502E+02  5.0390313240E+02  3.0000000000E+02 0. 9.
 4110000    1    1    2    0    0 -1.1683628952E+02 -1.3328234888E+01 -6.9750234049E+02  7.6833448145E+02  3.0000000000E+02 0. 9.
</event>
<event>
     4   194  1.000000E+00  3.540454E+02  7.883243E-03  1.050755E-01
       2   -1    0    0  101    0  0.0000000000E+00  0.0000000000E+00  4.2301117898E+02  4.2301117898E+02  0.0000000000E+00 0. 9.
      -2   -1    0    0    0  101  0.0000000000E+00  0.0000000000E+00 -3.0045198911E+02  3.0045198911E+02  0.0000000000E+00 0. 9.
 4110000    1    1    2    0    0 -1.6872155364E+02 -8.2953101774E+01  1.0368206391E+02  3.6891482775E+02  3.0000000000E+02 0. 9.
 -4110000    1    1    2    0    0  1.6872155364E+02  8.2953101774E+01  1.8877125964E+01  3.5454834034E+02  3.0000000000E+02 0. 9.
</event>
<event>
     4   194  1.000000E+00  3.018200E+02  7.868990E-03  1.072705E-01
      -2   -1    0    0    0  101  0.0000000000E+00  0.0000000000E+00  1.3134254222E+02  1.3134254222E+02  0.0000000000E+00 0. 9.
       2   -1    0    0  101    0  0.0000000000E+00  0.0000000000E+00 -7.5499251327E+02  7.5499251327E+02  0.0000000000E+00 0. 9.
 -4110000    1    1    2    0    0 -3.1539471105E+01  1.0028217705E+01 -4.3822842230E+02  5.3210849786E+02  3.0000000000E+02 0. 9.
 4110000    1    1    2    0    0  3.1539471105E+01 -1.0028217705E+01 -1.8542154875E+02  3.5422655763E+02  3.0000000000E+02 0. 9.
</event>
<event>
     4   194  1.000000E+00  3.334832E+02  7.877893E-03  1.058878E-01
       2   -1    0    0  101    0  0.0000000000E+00  0.0000000000E+00  2.1538055433E+02  2.1538055433E+02  0.0000000000E+00 0. 9.
      -2   -1    0    0    0  101  0.0000000000E+00  0.0000000000E+00 -5.2367561883E+02  5.2367561883E+02  0.0000000000E+00 0. 9.
 4110000    1    1    2    0    0  1.4540242878E+02 -8.3181563312E+00 -1.1043222423E+02  3.5129237704E+02  3.0000000000E+02 0. 9.
 -4110000    1    1    2    0    0 -1.4540242878E+02  8.3181563312E+00 -1.9786284028E+02  3.8776379612E+02  3.0000000000E+02 0. 9.
</event>
<event>
     4   194  1.000000E+00  3.110419E+02  7.871674E-03  1.068496E-01
       2   -1    0    0  101    0  0.0000000000E+00  0.0000000000E+00  3.0340161754E+03  3.0340161754E+03  0.0000000000E+00 0. 9.
      -2   -1    0    0    0  101  0.0000000000E+00  0.0000000000E+00 -3.3162745251E+01  3.3162745251E+01  0.0000000000E+00 0. 9.
 4110000    1    1    2    0    0  8.1559563418E+01 -9.7511436469E+00  1.1996883775E+03  1.2393543683E+03  3.0000000000E+02 0. 9.
 -4110000    1    1    2    0    0 -8.1559563418E+01  9.7511436469E+00  1.8011650527E+03  1.8278245524E+03  3.0000000000E+02 0. 9.
</event>
<event>
     4   194  1.000000E+00  5.166717E+02  7.917206E-03  1.002188E-01
       1   -1    0    0  101    0  0.0000000000E+00  0.0000000000E+00  2.5241406951E+03  2.5241406951E+03  0.0000000000E+00 0. 9.
      -1   -1    0    0    0  101  0.0000000000E+00  0.0000000000E+00 -1.2236941933E+02  1.2236941933E+02  0.0000000000E+00 0. 9.
 4110000    1    1    2    0    0  3.5271011647E+02  2.2922748524E+02  1.6884166258E+03  1.7657010983E+03  3.0000000000E+02 0. 9.
 -4110000    1    1    2    0    0 -3.5271011647E+02 -2.2922748524E+02  7.1335464993E+02  8.8080901609E+02  3.0000000000E+02 0. 9.
</event>
<event>
     4   194  1.000000E+00  3.548574E+02  7.883448E-03  1.050447E-01
       2   -1    0    0  101    0  0.0000000000E+00  0.0000000000E+00  1.7390582538E+03  1.7390582538E+03  0.0000000000E+00 0. 9.
      -2   -1    0    0    0  101  0.0000000000E+00  0.0000000000E+00 -1.0679036484E+02  1.0679036484E+02  0.0000000000E+00 0. 9.
 4110000    1    1    2    0    0 -1.8375394620E+02  4.6457162250E+01  2.9246059209E+02  4.5984451567E+02  3.0000000000E+02 0. 9.
 -4110000    1    1    2    0    0  1.8375394620E+02 -4.6457162250E+01  1.3398072968E+03  1.3860041029E+03  3.0000000000E+02 0. 9.
</event>
<event>
     4   194  1.000000E+00  3.069264E+02  7.870486E-03  1.070355E-01
      -2   -1    0    0    0  101  0.0000000000E+00  0.0000000000E+00  6.3233035958E+01  6.3233035958E+01  0.0000000000E+00 0. 9.
       2   -1    0    0  101    0  0.0000000000E+00  0.0000000000E+00 -1.5148053428E+03  1.5148053428E+03  0.0000000000E+00 0. 9.
 -4110000    1    1    2    0    0 -3.0656083525E+01 -5.7131663739E+01 -8.2718409835E+02  8.8229096959E+02  3.0000000000E+02 0. 9.
 4110000    1    1    2    0    0  3.0656083525E+01  5.7131663739E+01 -6.2438820849E+02  6.9574740917E+02  3.0000000000E+02 0. 9.
</event>
<event>
     4   194  1.000000E+00  3.023207E+02  7.869138E-03  1.072472E-01
      -1   -1    0    0    0  101  0.0000000000E+00  0.0000000000E+00  1.3653431642E+02  1.3653431642E+02  0.0000000000E+00 0. 9.
       1   -1    0    0  101    0  0.0000000000E+00  0.0000000000E+00 -7.8928145388E+02  7.8928145388E+02  0.0000000000E+00 0. 9.
 -4110000    1    1    2    0    0 -3.7202784847E+01 -3.7098492322E+00 -1.4597563396E+02  3.3571817927E+02  3.0000000000E+02 0. 9.
 4110000    1    1    2    0    0  3.7202784847E+01  3.7098492322E+00 -5.0677150351E+02  5.9009759104E+02  3.0000000000E+02 0. 9.
</event>
<event>
     4   194  1.000000E+00  3.495887E+02  7.882109E-03  1.052465E-01
      -2   -1    0    0    0  101  0.0000000000E+00  0.0000000000E+00  1.4273406582E+02  1.4273406582E+02  0.0000000000E+00 0. 9.
       2   -1    0    0  101    0  0.0000000000E+00  0.0000000000E+00 -1.8231621475E+03  1.8231621475E+03  0.0000000000E+00 0. 9.
 -4110000    1    1    2    0    0  6.3797214076E+01 -1.6775638325E+02 -1.2437173833E+02  3.7105338961E+02  3.0000000000E+02 0. 9.
 4110000    1    1    2    0    0 -6.3797214076E+01  1.6775638325E+02 -1.5560563433E+03  1.5948428237E+03  3.0000000000E+02 0. 9.
</event>
<event>
     4   194  1.000000E+00  4.689206E+02  7.908464E-03  1.014215E-01
       1   -1    0    0  101    0  0.0000000000E+00  0.0000000000E+00  8.8408567251E+02  8.8408567251E+02  0.0000000000E+00 0. 9.
      -1   -1    0    0    0  101  0.0000000000E+00  0.0000000000E+00 -3.3243254191E+02  3.3243254191E+02  0.0000000000E+00 0. 9.
 4110000    1    1    2    0    0 -3.5331395978E+02 -7.1103719939E+01 -2.9413675899E+01  4.6984216232E+02  3.0000000000E+02 0. 9.
 -4110000    1    1    2    0    0  3.5331395978E+02  7.1103719939E+01  5.8106680651E+02  7.4667605210E+02  3.0000000000E+02 0. 9.
</event>
<event>
     4   194  1.000000E+00  3.289494E+02  7.876670E-03  1.060754E-01
      -2   -1    0    0    0  101  0.0000000000E+00  0.0000000000E+00  9.9837811341E+02  9.9837811341E+02  0.0000000000E+00 0. 9.
       2   -1    0    0  101    0  0.0000000000E+00  0.0000000000E+00 -1.1082862704E+02  1.1082862704E+02  0.0000000000E+00 0. 9.
 -4110000    1    1    2    0    0  3.4565048306E+01  1.3043367311E+02  5.2615246682E+02  6.2051922129E+02  3.0000000000E+02 0. 9.
 4110000    1    1    2    0    0 -3.4565048306E+01 -1.3043367311E+02  3.6139701955E+02  4.8868751916E+02  3.0000000000E+02 0. 9.
</event>
<event>
     4   194  1.000000E+00  3.303277E+02  7.877044E-03  1.060181E-01
       2   -1    0    0  101    0  0.0000000000E+00  0.0000000000E+00  2.0742885275E+02  2.0742885275E+02  0.0000000000E+00 0. 9.
      -2   -1    0    0    0  101  0.0000000000E+00  0.0000000000E+00 -5.2639932168E+02  5.2639932168E+02  0.0000000000E+00 0. 9.
 4110000    1    1    2    0    0 -6.3010112680E+00 -1.3811841387E+02 -1.4993283171E+02  3.6276197846E+02  3.0000000000E+02 0. 9.
 -4110000    1    1    2    0    0  6.3010112680E+00  1.3811841387E+02 -1.6903763722E+02  3.7106619597E+02  3.0000000000E+02 0. 9.
</event>
<event>
     4   194  1.000000E+00  7.010391E+02  7.944839E-03  9.661351E-02
      -2   -1    0    0    0  101  0.0000000000E+00  0.0000000000E+00  4.2265367198E+02  4.2265367198E+02  0.0000000000E+00 0. 9.
       2   -1    0    0  101    0  0.0000000000E+00  0.0000000000E+00 -1.1692276674E+03  1.1692276674E+03  0.0000000000E+00 0. 9.
 -4110000    1    1    2    0    0  4.4473059635E+02  4.5129871566E+02 -4.3236494569E+02  8.2364754619E+02  3.0000000000E+02 0. 9.
 4110000    1    1    2    0    0 -4.4473059635E+02 -4.5129871566E+02 -3.1420904973E+02  7.6823379320E+02  3.0000000000E+02 0. 9.
</event>
<event>
     4   194  1.000000E+00  3.125965E+02  7.872119E-03  1.067802E-01
       2   -1    0    0  101    0  0.0000000000E+00  0.0000000000E+00  1.1051535130E+02  1.1051535130E+02  0.0000000000E+00 0. 9.
      -2   -1    0    0    0  101  0.0000000000E+00  0.0000000000E+00 -9.1689006297E+02  9.1689006297E+02  0.0000000000E+00 0. 9.
 4110000    1    1    2    0    0 -3.5963635149E+01  8.0144867242E+01 -3.0617508855E+02  4.3756115875E+02  3.0000000000E+02 0. 9.
 -4110000    1    1    2    0    0  3.5963635149E+01 -8.0144867242E+01 -5.0019962312E+02  5.8984425552E+02  3.0000000000E+02 0. 9.
</event>
<event>
     4   194  1.000000E+00  3.399103E+02  7.879599E-03  1.056273E-01
       2   -1    0    0  101    0  0.0000000000E+00  0.0000000000E+00  1.0375779369E+02  1.0375779369E+02  0.0000000000E+00 0. 9.
      -2   -1    0    0    0  101  0.0000000000E+00  0.0000000000E+00 -1.2295168426E+03  1.2295168426E+03  0.0000000000E+00 0. 9.
 4110000    1    1    2    0    0 -1.1529266205E+02  1.1066441898E+02 -3.5814176216E+02  4.9376566644E+02  3.0000000000E+02 0. 9.
 -4110000    1    1    2    0    0  1.1529266205E+02 -1.1066441898E+02 -7.6761728673E+02  8.3950896983E+02  3.0000000000E+02 0. 9.
</event>
<event>
     4   194  1.000000E+00  4.094597E+02  7.896274E-03  1.031524E-01
       2   -1    0    0  101    0  0.0000000000E+00  0.0000000000E+00  6.4846139171E+02  6.4846139171E+02  0.0000000000E+00 0. 9.
      -2   -1    0    0    0  101  0.0000000000E+00  0.0000000000E+00 -2.6046411730E+02  2.6046411730E+02  0.0000000000E+00 0. 9.
 4110000    1    1    2    0    0  2.6276721357E+02 -9.2793392445E+01  2.3299646460E+02  4.7110993911E+02  3.0000000000E+02 0. 9.
 -4110000    1    1    2    0    0 -2.6276721357E+02  9.2793392445E+01  1.5500080980E+02  4.3781556990E+02  3.0000000000E+02 0. 9.
</event>
<event>
     4   194  1.000000E+00  3.050942E+02  7.869952E-03  1.071192E-01
       2   -1    0    0  101    0  0.0000000000E+00  0.0000000000E+00  1.7906555936E+03  1.7906555936E+03  0.0000000000E+00 0. 9.
      -2   -1    0    0    0  101  0.0000000000E+00  0.0000000000E+00 -5.7522587417E+01  5.7522587417E+01  0.0000000000E+00 0. 9.
 4110000    1    1    2    0    0 -4.2232264603E+00 -5.5359287554E+01  5.7977993135E+02  6.5515437506E+02  3.0000000000E+02 0. 9.
 -4110000    1    1    2    0    0  4.2232264603E+00  5.5359287554E+01  1.1533530748E+03  1.1930238060E+03  3.0000000000E+02 0. 9.
</event>
<event>
     4   194  1.000000E+00  4.083785E+02  7.896037E-03  1.031867E-01
      -2   -1    0    0    0  101  0.0000000000E+00  0.0000000000E+00  1.1506333053E+03  1.1506333053E+03  0.0000000000E+00 0. 9.
       2   -1    0    0  101    0  0.0000000000E+00  0.0000000000E+00 -2.9594992418E+02  2.9594992418E+02  0.0000000000E+00 0. 9.
 -4110000    1    1    2    0    0  9.7552520411E+01  2.5933855609E+02  9.4400404832E+02  1.0285507397E+03  3.0000000000E+02 0. 9.
 4110000    1    1    2    0    0 -9.7552520411E+01 -2.5933855609E+02 -8.9320667204E+01  4.1803248977E+02  3.0000000000E+02 0. 9.
</event>
<event>
     4   194  1.000000E+00  3.712097E+02  7.887480E-03  1.044416E-01
       2   -1    0    0  101    0  0.0000000000E+00  0.0000000000E+00  1.2487815045E+03  1.2487815045E+03  0.0000000000E+00 0. 9.
      -2   -1    0    0    0  101  0.0000000000E+00  0.0000000000E+00 -1.1224637504E+02  1.1224637504E+02  0.0000000000E+00 0. 9.
 4110000    1    1    2    0    0 -1.7452918285E+02 -1.3166703329E+02  6.5684001089E+02  7.5447693353E+02  3.0000000000E+02 0. 9.
 -4110000    1    1    2    0    0  1.7452918285E+02  1.3166703329E+02  4.7969511856E+02  6.0655094600E+02  3.0000000000E+02 0. 9.
</event>
<event>
     4   194  1.000000E+00  4.435962E+02  7.903468E-03  1.021231E-01
       2   -1    0    0  101    0  0.0000000000E+00  0.0000000000E+00  8.6368132389E+02  8.6368132389E+02  0.0000000000E+00 0. 9.
      -2   -1    0    0    0  101  0.0000000000E+00  0.0000000000E+00 -2.3077258070E+02  2.3077258070E+02  0.0000000000E+00 0. 9.
 4110000    1    1    2    0    0  2.3384328574E+02  2.2824312361E+02  2.5472323793E+02  5.1152862452E+02  3.0000000000E+02 0. 9.
 -4110000    1    1    2    0    0 -2.3384328574E+02 -2.2824312361E+02  3.7818550525E+02  5.8292528007E+02  3.0000000000E+02 0. 9.
</event>
<event>
     4   194  1.000000E+00  3.049746E+02  7.869917E-03  1.071247E-01
      -2   -1    0    0    0  101  0.0000000000E+00  0.0000000000E+00  4.4128172307E+01  4.4128172307E+01  0.0000000000E+00 0. 9.
       2   -1    0    0  101    0  0.0000000000E+00  0.0000000000E+00 -2.5932202942E+03  2.5932202942E+03  0.0000000000E+00 0. 9.
 -4110000    1    1    2    0    0 -5.4713847378E+01  3.9868676640E+00 -7.0396688268E+02  7.6718894161E+02  3.0000000000E+02 0. 9.
 4110000    1    1    2    0    0  5.4713847378E+01 -3.9868676640E+00 -1.8451252392E+03  1.8701595249E+03  3.0000000000E+02 0. 9.
</event>
<event>
     4   194  1.000000E+00  3.119745E+02  7.871941E-03  1.068079E-01
       2   -1    0    0  101    0  0.0000000000E+00  0.0000000000E+00  3.2849965882E+02  3.2849965882E+02  0.0000000000E+00 0. 9.
      -2   -1    0    0    0  101  0.0000000000E+00  0.0000000000E+00 -3.4268974471E+02  3.4268974471E+02  0.0000000000E+00 0. 9.
 4110000    1    1    2    0    0  1.7460185880E+00 -8.5586333120E+01 -1.3059489122E+02  3.3820569867E+02  3.0000000000E+02 0. 9.
 -4110000    1    1    2    0    0 -1.7460185880E+00  8.5586333120E+01  1.1640480533E+02  3.3298370486E+02  3.0000000000E+02 0. 9.
</event>
<event>
     4   194  1.000000E+00  3.105994E+02  7.871547E-03  1.068694E-01
       2   -1    0    0  101    0  0.0000000000E+00  0.0000000000E+00  2.9598048587E+03  2.9598048587E+03  0.0000000000E+00 0. 9.
      -2   -1    0    0    0  101  0.0000000000E+00  0.0000000000E+00 -3.5196893489E+01  3.5196893489E+01  0.0000000000E+00 0. 9.
 4110000    1    1    2    0    0 -5.4445032832E+01 -5.9225888757E+01  1.8695348020E+03  1.8951602421E+03  3.0000000000E+02 0. 9.
 -4110000    1    1    2    0    0  5.4445032832E+01  5.9225888757E+01  1.0550731632E+03  1.0998415101E+03  3.0000000000E+02 0. 9.
</event>
<event>
     4   194  1.000000E+00  4.216062E+02  7.898899E-03  1.027742E-01
       2   -1    0    0  101    0  0.0000000000E+00  0.0000000000E+00  1.7488702479E+03  1.7488702479E+03  0.0000000000E+00 0. 9.
      -2   -1    0    0    0  101  0.0000000000E+00  0.0000000000E+00 -1.0801958642E+02  1.0801958642E+02  0.0000000000E+00 0. 9.
 4110000    1    1    2    0    0  2.2367585958E+02  1.9421878771E+02  1.0460913824E+03  1.1278559341E+03  3.0000000000E+02 0. 9.
 -4110000    1    1    2    0    0 -2.2367585958E+02 -1.9421878771E+02  5.9475927902E+02  7.2903390020E+02  3.0000000000E+02 0. 9.
</event>
<event>
     4   194  1.000000E+00  4.204717E+02  7.898657E-03  1.028090E-01
      -2   -1    0    0    0  101  0.0000000000E+00  0.0000000000E+00  1.4602219338E+02  1.4602219338E+02  0.0000000000E+00 0. 9.
       2   -1    0    0  101    0  0.0000000000E+00  0.0000000000E+00 -1.5941095389E+03  1.5941095389E+03  0.0000000000E+00 0. 9.
 -4110000    1    1    2    0    0 -1.1521403201E+02  2.7114973620E+02 -1.1507173687E+03  1.2251313869E+03  3.0000000000E+02 0. 9.
 4110000    1    1    2    0    0  1.1521403201E+02 -2.7114973620E+02 -2.9736997687E+02  5.1500034539E+02  3.0000000000E+02 0. 9.
</event>
<event>
     4   194  1.000000E+00  3.293264E+02  7.876773E-03  1.060597E-01
       2   -1    0    0  101    0  0.0000000000E+00  0.0000000000E+00  8.9533943877E+02  8.9533943877E+02  0.0000000000E+00 0. 9.
      -2   -1    0    0    0  101  0.0000000000E+00  0.0000000000E+00 -1.2115879351E+02  1.2115879351E+02  0.0000000000E+00 0. 9.
 4110000    1    1    2    0    0 -1.3577940911E+02 -4.4558565819E+00  3.7979605394E+02  5.0269368922E+02  3.0000000000E+02 0. 9.
 -4110000    1    1    2    0    0  1.3577940911E+02  4.4558565819E+00  3.9438459132E+02  5.1380454306E+02  3.0000000000E+02 0. 9.
</event>
<event>
     4   194  1.000000E+00  3.092790E+02  7.871167E-03  1.069288E-01
       2   -1    0    0  101    0  0.0000000000E+00  0.0000000000E+00  5.7344270654E+02  5.7344270654E+02  0.0000000000E+00 0. 9.
      -2   -1    0    0    0  101  0.0000000000E+00  0.0000000000E+00 -1.8754929748E+02  1.8754929748E+02  0.0000000000E+00 0. 9.
 4110000    1    1    2    0    0 -7.4695268244E+01  8.6104732292E+00  3.1948856328E+02  4.4466444137E+02  3.0000000000E+02 0. 9.
 -4110000    1    1    2    0    0  7.4695268244E+01 -8.6104732292E+00  6.6404845777E+01  3.1632756265E+02  3.0000000000E+02 0. 9.
</event>
<event>
     4   194  1.000000E+00  4.736750E+02  7.909373E-03  1.012950E-01
      -1   -1    0    0    0  101  0.0000000000E+00  0.0000000000E+00  6.5780970772E+02  6.5780970772E+02  0.0000000000E+00 0. 9.
       1   -1    0    0  101    0  0.0000000000E+00  0.0000000000E+00 -5.4968930506E+02  5.4968930506E+02  0.0000000000E+00 0. 9.
 -4110000    1    1    2    0    0 -3.6036084677E+02 -6.7142234548E+01  4.2599033676E+02  6.3705242057E+02  3.0000000000E+02 0. 9.
 4110000    1    1    2    0    0  3.6036084677E+02  6.7142234548E+01 -3.1786993410E+02  5.7044659220E+02  3.0000000000E+02 0. 9.
</event>
<event>
     4   194  1.000000E+00  3.629076E+02  7.885455E-03  1.047435E-01
       1   -1    0    0  101    0  0.0000000000E+00  0.0000000000E+00  1.9680537398E+02  1.9680537398E+02  0.0000000000E+00 0. 9.
      -1   -1    0    0    0  101  0.0000000000E+00  0.0000000000E+00 -6.8697393495E+02  6.8697393495E+02  0.0000000000E+00 0. 9.
 4110000    1    1    2    0    0 -7.0793058373E+01 -1.9154701020E+02 -1.7400377267E+02  4.0246642982E+02  3.0000000000E+02 0. 9.
 -4110000    1    1    2    0    0  7.0793058373E+01  1.9154701020E+02 -3.1616478830E+02  4.8131287911E+02  3.0000000000E+02 0. 9.
</event>
<event>
     4   194  1.000000E+00  3.082865E+02  7.870880E-03  1.069737E-01
      -2   -1    0    0    0  101  0.0000000000E+00  0.0000000000E+00  9.0693880491E+01  9.0693880491E+01  0.0000000000E+00 0. 9.
       2   -1    0    0  101    0  0.0000000000E+00  0.0000000000E+00 -1.0696237159E+03  1.0696237159E+03  0.0000000000E+00 0. 9.
 -4110000    1    1    2    0    0  2.9703119724E+01  6.4484935905E+01 -5.7209279335E+02  6.4986979195E+02  3.0000000000E+02 0. 9.
 4110000    1    1    2    0    0 -2.9703119724E+01 -6.4484935905E+01 -4.0683704210E+02  5.1044780448E+02  3.0000000000E+02 0. 9.
</event>
<event>
     4   194  1.000000E+00  3.767471E+02  7.888807E-03  1.042449E-01
       2   -1    0    0  101    0  0.0000000000E+00  0.0000000000E+00  6.2431789622E+02  6.2431789622E+02  0.0000000000E+00 0. 9.
      -2   -1    0    0    0  101  0.0000000000E+00  0.0000000000E+00 -2.2739404620E+02  2.2739404620E+02  0.0000000000E+00 0. 9.
 4110000    1    1    2    0    0 -2.2204497215E+02 -5.1326295439E+01  1.9250113036E+02  4.2307805834E+02  3.0000000000E+02 0. 9.
 -4110000    1    1    2    0    0  2.2204497215E+02  5.1326295439E+01  2.0442271966E+02  4.2863388407E+02  3.0000000000E+02 0. 9.
</event>
<event>
     4   194  1.000000E+00  3.284705E+02  7.876540E-03  1.060955E-01
       1   -1    0    0  101    0  0.0000000000E+00  0.0000000000E+00  3.0636017945E+02  3.0636017945E+02  0.0000000000E+00 0. 9.
      -1   -1    0    0    0  101  0.0000000000E+00  0.0000000000E+00 -3.7434898202E+02  3.7434898202E+02  0.0000000000E+00 0. 9.
 4110000    1    1    2    0    0 -1.2209004464E+02 -5.4652372804E+01 -1.1682680494E+02  3.4862782907E+02  3.0000000000E+02 0. 9.
 -4110000    1    1    2    0    0  1.2209004464E+02  5.4652372804E+01  4.8838002367E+01  3.3208133240E+02  3.0000000000E+02 0. 9.
</event>
<event>
     4   194  1.000000E+00  3.556837E+02  7.883656E-03  1.050134E-01
       2   -1    0    0  101    0  0.0000000000E+00  0.0000000000E+00  6.6587609074E+02  6.6587609074E+02  0.0000000000E+00 0. 9.
      -2   -1    0    0    0  101  0.0000000000E+00  0.0000000000E+00 -2.6915789624E+02  2.6915789624E+02  0.0000000000E+00 0. 9.
 4110000    1    1    2    0    0 -1.7169001768E+02  8.3865354251E+01 -5.5191138768E+01  3.5994016394E+02  3.0000000000E+02 0. 9.
 -4110000    1    1    2    0    0  1.7169001768E+02 -8.3865354251E+01  4.5190933327E+02  5.7509382305E+02  3.0000000000E+02 0. 9.
</event>
<event>
     4   194  1.000000E+00  3.573439E+02  7.884072E-03  1.049508E-01
      -2   -1    0    0    0  101  0.0000000000E+00  0.0000000000E+00  1.0305943633E+02  1.0305943633E+02  0.0000000000E+00 0. 9.
       2   -1    0    0  101    0  0.0000000000E+00  0.0000000000E+00 -1.2422119140E+03  1.2422119140E+03  0.0000000000E+00 0. 9.
 -4110000    1    1    2    0    0  1.2798675679E+02  1.4599323585E+02 -6.0357229489E+02  7.0142294658E+02  3.0000000000E+02 0. 9.
 4110000    1    1    2    0    0 -1.2798675679E+02 -1.4599323585E+02 -5.3558018278E+02  6.4384840375E+02  3.0000000000E+02 0. 9.
</event>
<event>
     4   194  1.000000E+00  3.956963E+02  7.893206E-03  1.035982E-01
       2   -1    0    0  101    0  0.0000000000E+00  0.0000000000E+00  8.0375001739E+02  8.0375001739E+02  0.0000000000E+00 0. 9.
      -2   -1    0    0    0  101  0.0000000000E+00  0.0000000000E+00 -4.2296764507E+02  4.2296764507E+02  0.0000000000E+00 0. 9.
 4110000    1    1    2    0    0 -1.6783824797E+02 -1.9597413257E+02  6.4087803547E+02  7.5319333140E+02  3.0000000000E+02 0. 9.
 -4110000    1    1    2    0    0  1.6783824797E+02  1.9597413257E+02 -2.6009566315E+02  4.7352433106E+02  3.0000000000E+02 0. 9.
</event>
<event>
     4   194  1.000000E+00  3.210606E+02  7.874503E-03  1.064098E-01
      -1   -1    0    0    0  101  0.0000000000E+00  0.0000000000E+00  3.5456022433E+02  3.5456022433E+02  0.0000000000E+00 0. 9.
       1   -1    0    0  101    0  0.0000000000E+00  0.0000000000E+00 -3.4679930852E+02  3.4679930852E+02  0.0000000000E+00 0. 9.
 -4110000    1    1    2    0    0  3.8066454904E+00  1.1430406747E+02  1.4489026227E+02  3.5224011482E+02  3.0000000000E+02 0. 9.
 4110000    1    1    2    0    0 -3.8066454904E+00 -1.1430406747E+02 -1.3712934645E+02  3.4911941803E+02  3.0000000000E+02 0. 9.
</event>
<event>
     4   194  1.000000E+00  3.539059E+02  7.883207E-03  1.050809E-01
      -2   -1    0    0    0  101  0.0000000000E+00  0.0000000000E+00  9.0360809213E+01  9.0360809213E+01  0.0000000000E+00 0. 9.
       2   -1    0    0  101    0  0.0000000000E+00  0.0000000000E+00 -1.5509032875E+03  1.5509032875E+03  0.0000000000E+00 0. 9.
 -4110000    1    1    2    0    0  1.7811731764E+02 -5.9359936716E+01 -4.6276420180E+02  5.8258054156E+02  3.0000000000E+02 0. 9.
 4110000    1    1    2    0    0 -1.7811731764E+02  5.9359936716E+01 -9.9777827645E+02  1.0586835551E+03  3.0000000000E+02 0. 9.
</event>
<event>
     4   194  1.000000E+00  3.332184E+02  7.877822E-03  1.058987E-01
      -2   -1    0    0    0  101  0.0000000000E+00  0.0000000000E+00  5.6482776606E+02  5.6482776606E+02  0.0000000000E+00 0. 9.
       2   -1    0    0  101    0  0.0000000000E+00  0.0000000000E+00 -2.0811568526E+02  2.0811568526E+02  0.0000000000E+00 0. 9.
 -4110000    1    1    2    0    0 -1.4269136853E+02 -2.5955449989E+01  8.7372109584E+01  3.4448279720E+02  3.0000000000E+02 0. 9.
 4110000    1    1    2    0    0  1.4269136853E+02  2.5955449989E+01  2.6933997121E+02  4.2846065412E+02  3.0000000000E+02 0. 9.
</event>
<event>
     4   194  1.000000E+00  3.176035E+02  7.873537E-03  1.065596E-01
       2   -1    0    0  101    0  0.0000000000E+00  0.0000000000E+00  7.5307038745E+02  7.5307038745E+02  0.0000000000E+00 0. 9.
      -2   -1    0    0    0  101  0.0000000000E+00  0.0000000000E+00 -1.4439553828E+02  1.4439553828E+02  0.0000000000E+00 0. 9.
 4110000    1    1    2    0    0  9.1453883950E+01 -5.0081718015E+01  1.8363226800E+02  3.6686891558E+02  3.0000000000E+02 0. 9.
 -4110000    1    1    2    0    0 -9.1453883950E+01  5.0081718015E+01  4.2504258118E+02  5.3059701015E+02  3.0000000000E+02 0. 9.
</event>
<event>
     4   194  1.000000E+00  3.069397E+02  7.870490E-03  1.070349E-01
      -2   -1    0    0    0  101  0.0000000000E+00  0.0000000000E+00  1.8814274217E+02  1.8814274217E+02  0.0000000000E+00 0. 9.
       2   -1    0    0  101    0  0.0000000000E+00  0.0000000000E+00 -5.9541412324E+02  5.9541412324E+02  0.0000000000E+00 0. 9.
 -4110000    1    1    2    0    0  6.2703571753E+01  1.6739776302E+01 -3.5985330742E+02  4.7297606798E+02  3.0000000000E+02 0. 9.
 4110000    1    1    2    0    0 -6.2703571753E+01 -1.6739776302E+01 -4.7418073649E+01  3.1058079743E+02  3.0000000000E+02 0. 9.
</event>
<event>
     4   194  1.000000E+00  5.765791E+02  7.927118E-03  9.889209E-02
      -1   -1    0    0    0  101  0.0000000000E+00  0.0000000000E+00  2.9667709954E+02  2.9667709954E+02  0.0000000000E+00 0. 9.
       1   -1    0    0  101    0  0.0000000000E+00  0.0000000000E+00 -1.7141025519E+03  1.7141025519E+03  0.0000000000E+00 0. 9.
 -4110000    1    1    2    0    0 -1.1028876310E+02 -4.7987482075E+02 -1.1709211966E+02  5.8834855260E+02  3.0000000000E+02 0. 9.
 4110000    1    1    2    0    0  1.1028876310E+02  4.7987482075E+02 -1.3003333327E+03  1.4224310989E+03  3.0000000000E+02 0. 9.
</event>
<event>
     4   194  1.000000E+00  3.822046E+02  7.890096E-03  1.040545E-01
       2   -1    0    0  101    0  0.0000000000E+00  0.0000000000E+00  5.1817600420E+02  5.1817600420E+02  0.0000000000E+00 0. 9.
      -2   -1    0    0    0  101  0.0000000000E+00  0.0000000000E+00 -4.5241352528E+02  4.5241352528E+02  0.0000000000E+00 0. 9.
 4110000    1    1    2    0    0 -2.2107419026E+02  8.4891392788E+01  3.3080228433E+02  5.0548046203E+02  3.0000000000E+02 0. 9.
 -4110000    1    1    2    0    0  2.2107419026E+02 -8.4891392788E+01 -2.6503980542E+02  4.6510906745E+02  3.0000000000E+02 0. 9.
</event>
<event>
     4   194  1.000000E+00  3.073031E+02  7.870595E-03  1.070183E-01
      -2   -1    0    0    0  101  0.0000000000E+00  0.0000000000E+00  1.3768807715E+02  1.3768807715E+02  0.0000000000E+00 0. 9.
       2   -1    0    0  101    0  0.0000000000E+00  0.0000000000E+00 -8.9827406655E+02  8.9827406655E+02  0.0000000000E+00 0. 9.
 -4110000    1    1    2    0    0 -6.5331308377E+01  1.2924517297E+01 -1.2841075646E+02  3.3305336716E+02  3.0000000000E+02 0. 9.
 4110000    1    1    2    0    0  6.5331308377E+01 -1.2924517297E+01 -6.3217523294E+02  7.0290877654E+02  3.0000000000E+02 0. 9.
</event>
<event>
     4   194  1.000000E+00  3.001392E+02  7.868492E-03  1.073490E-01
      -2   -1    0    0    0  101  0.0000000000E+00  0.0000000000E+00  5.0725639576E+02  5.0725639576E+02  0.0000000000E+00 0. 9.
       2   -1    0    0  101    0  0.0000000000E+00  0.0000000000E+00 -2.3476748839E+02  2.3476748839E+02  0.0000000000E+00 0. 9.
 -4110000    1    1    2    0    0  5.9498335201E+00  6.9383554187E+00  3.1934193187E+02  4.3824971277E+02  3.0000000000E+02 0. 9.
 4110000    1    1    2    0    0 -5.9498335201E+00 -6.9383554187E+00 -4.6853024489E+01  3.0377417138E+02  3.0000000000E+02 0. 9.
</event>
<event>
     4   194  1.000000E+00  3.301417E+02  7.876994E-03  1.060258E-01
      -2   -1    0    0    0  101  0.0000000000E+00  0.0000000000E+00  3.9080477088E+02  3.9080477088E+02  0.0000000000E+00 0. 9.
       2   -1    0    0  101    0  0.0000000000E+00  0.0000000000E+00 -7.7151503366E+02  7.7151503366E+02  0.0000000000E+00 0. 9.
 -4110000    1    1    2    0    0 -1.0040972522E+02 -9.4400539553E+01  2.7403116120E+02  4.2905320427E+02  3.0000000000E+02 0. 9.
 4110000    1    1    2    0    0  1.0040972522E+02  9.4400539553E+01 -6.5474142398E+02  7.3326660026E+02  3.0000000000E+02 0. 9.
</event>
<event>
     4   194  1.000000E+00  3.174058E+02  7.873481E-03  1.065682E-01
       2   -1    0    0  101    0  0.0000000000E+00  0.0000000000E+00  2.2275116445E+02  2.2275116445E+02  0.0000000000E+00 0. 9.
      -2   -1    0    0    0  101  0.0000000000E+00  0.0000000000E+00 -5.1933520208E+02  5.1933520208E+02  0.0000000000E+00 0. 9.
 4110000    1    1    2    0    0  9.3363220922E+01 -4.5052770299E+01 -1.4967854678E+01  3.1775852436E+02  3.0000000000E+02 0. 9.
 -4110000    1    1    2    0    0 -9.3363220922E+01  4.5052770299E+01 -2.8161618296E+02  4.2432784217E+02  3.0000000000E+02 0. 9.
</event>
<event>
     4   194  1.000000E+00  4.792384E+02  7.910424E-03  1.011490E-01
      -2   -1    0    0    0  101  0.0000000000E+00  0.0000000000E+00  2.2286382333E+02  2.2286382333E+02  0.0000000000E+00 0. 9.
       2   -1    0    0  101    0  0.0000000000E+00  0.0000000000E+00 -1.1485315358E+03  1.1485315358E+03  0.0000000000E+00 0. 9.
 -4110000    1    1    2    0    0  2.4909236382E+02  2.7860801023E+02 -2.4305188877E+02  5.3734872264E+02  3.0000000000E+02 0. 9.
 4110000    1    1    2    0    0 -2.4909236382E+02 -2.7860801023E+02 -6.8261582365E+02  8.3404663646E+02  3.0000000000E+02 0. 9.
</event>
<event>
     4   194  1.000000E+00  3.727133E+02  7.887843E-03  1.043878E-01
       1   -1    0    0  101    0  0.0000000000E+00  0.0000000000E+00  4.3531262844E+02  4.3531262844E+02  0.0000000000E+00 0. 9.
      -1   -1    0    0    0  101  0.0000000000E+00  0.0000000000E+00 -4.3263877672E+02  4.3263877672E+02  0.0000000000E+00 0. 9.
 4110000    1    1    2    0    0 -1.2404048881E+02  1.8310973662E+02  2.2363936298E+02  4.3466053787E+02  3.0000000000E+02 0. 9.
 -4110000    1    1    2    0    0  1.2404048881E+02 -1.8310973662E+02 -2.2096551126E+02  4.3329086729E+02  3.0000000000E+02 0. 9.
</event>
<event>
     4   194  1.000000E+00  3.207487E+02  7.874416E-03  1.064232E-01
      -2   -1    0    0    0  101  0.0000000000E+00  0.0000000000E+00  1.3409986077E+02  1.3409986077E+02  0.0000000000E+00 0. 9.
       2   -1    0    0  101    0  0.0000000000E+00  0.0000000000E+00 -8.0801694923E+02  8.0801694923E+02  0.0000000000E+00 0. 9.
 -4110000    1    1    2    0    0  1.1346055320E+02 -2.5333193404E+00 -4.4284786412E+02  5.4680338842E+02  3.0000000000E+02 0. 9.
 4110000    1    1    2    0    0 -1.1346055320E+02  2.5333193404E+00 -2.3106922434E+02  3.9531342158E+02  3.0000000000E+02 0. 9.
</event>
<event>
     4   194  1.000000E+00  3.329696E+02  7.877755E-03  1.059089E-01
       2   -1    0    0  101    0  0.0000000000E+00  0.0000000000E+00  3.7904146159E+02  3.7904146159E+02  0.0000000000E+00 0. 9.
      -2   -1    0    0    0  101  0.0000000000E+00  0.0000000000E+00 -2.9356521910E+02  2.9356521910E+02  0.0000000000E+00 0. 9.
 4110000    1    1    2    0    0  1.1822724620E+02  8.3012531658E+01  6.3017901974E+01  3.3888053666E+02  3.0000000000E+02 0. 9.
 -4110000    1    1    2    0    0 -1.1822724620E+02 -8.3012531658E+01  2.2458340511E+01  3.3372614404E+02  3.0000000000E+02 0. 9.
</event>
<event>
     4   194  1.000000E+00  3.571335E+02  7.884020E-03  1.049587E-01
      -3   -1    0    0    0  101  0.0000000000E+00  0.0000000000E+00  1.9520473639E+02  1.9520473639E+02  0.0000000000E+00 0. 9.
       3   -1    0    0  101    0  0.0000000000E+00  0.0000000000E+00 -6.5983672084E+02  6.5983672084E+02  0.0000000000E+00 0. 9.
 -4110000    1    1    2    0    0  1.4033740229E+02  1.3360286219E+02 -2.7458252294E+02  4.5048848284E+02  3.0000000000E+02 0. 9.
 4110000    1    1    2    0    0 -1.4033740229E+02 -1.3360286219E+02 -1.9004946151E+02  4.0455297439E+02  3.0000000000E+02 0. 9.
</event>
<event>
     4   194  1.000000E+00  3.692269E+02  7.887001E-03  1.045129E-01
       2   -1    0    0  101    0  0.0000000000E+00  0.0000000000E+00  5.3580140582E+02  5.3580140582E+02  0.0000000000E+00 0. 9.
      -2   -1    0    0    0  101  0.0000000000E+00  0.0000000000E+00 -2.5565896703E+02  2.5565896703E+02  0.0000000000E+00 0. 9.
 4110000    1    1    2    0    0 -5.3736079783E+01  2.0842481385E+02  1.6741407541E+02  4.0540836442E+02  3.0000000000E+02 0. 9.
 -4110000    1    1    2    0    0  5.3736079783E+01 -2.0842481385E+02  1.1272836337E+02  3.8605200843E+02  3.0000000000E+02 0. 9.
</event>
<event>
     4   194  1.000000E+00  3.789231E+02  7.889323E-03  1.041686E-01
      -2   -1    0    0    0  101  0.0000000000E+00  0.0000000000E+00  3.4259858760E+02  3.4259858760E+02  0.0000000000E+00 0. 9.
       2   -1    0    0  101    0  0.0000000000E+00  0.0000000000E+00 -4.2985776639E+02  4.2985776639E+02  0.0000000000E+00 0. 9.
 -4110000    1    1    2    0    0  1.8796795318E+02 -1.3509531730E+02 -1.0473287022E+02  3.9313060207E+02  3.0000000000E+02 0. 9.
 4110000    1    1    2    0    0 -1.8796795318E+02  1.3509531730E+02  1.7473691431E+01  3.7932575192E+02  3.0000000000E+02 0. 9.
</event>
<event>
     4   194  1.000000E+00  3.882982E+02  7.891513E-03  1.038460E-01
       3   -1    0    0  101    0  0.0000000000E+00  0.0000000000E+00  1.1821344263E+03  1.1821344263E+03  0.0000000000E+00 0. 9.
      -3   -1    0    0    0  101  0.0000000000E+00  0.0000000000E+00 -1.3013548596E+02  1.3013548596E+02  0.0000000000E+00 0. 9.
 4110000    1    1    2    0    0 -5.7107648905E+01  2.3982117885E+02  4.3342833781E+02  5.8192405467E+02  3.0000000000E+02 0. 9.
 -4110000    1    1    2    0    0  5.7107648905E+01 -2.3982117885E+02  6.1857060257E+02  7.3034585762E+02  3.0000000000E+02 0. 9.
</event>
<event>
     4   194  1.000000E+00  4.023296E+02  7.894697E-03  1.033810E-01
       2   -1    0    0  101    0  0.0000000000E+00  0.0000000000E+00  6.6794439556E+02  6.6794439556E+02  0.0000000000E+00 0. 9.
      -2   -1    0    0    0  101  0.0000000000E+00  0.0000000000E+00 -2.8731839298E+02  2.8731839298E+02  0.0000000000E+00 0. 9.
 4110000    1    1    2    0    0 -1.4161616661E+02 -2.2762686477E+02  1.3325630508E+00  4.0233183311E+02  3.0000000000E+02 0. 9.
 -4110000    1    1    2    0    0  1.4161616661E+02  2.2762686477E+02  3.7929343953E+02  5.5293095543E+02  3.0000000000E+02 0. 9.
</event>
<event>
     4   194  1.000000E+00  3.330044E+02  7.877765E-03  1.059075E-01
       2   -1    0    0  101    0  0.0000000000E+00  0.0000000000E+00  1.1457861638E+03  1.1457861638E+03  0.0000000000E+00 0. 9.
      -2   -1    0    0    0  101  0.0000000000E+00  0.0000000000E+00 -1.6343067665E+02  1.6343067665E+02  0.0000000000E+00 0. 9.
 4110000    1    1    2    0    0  1.2874681913E+02 -6.5697940842E+01  9.0920940891E+02  9.6827357297E+02  3.0000000000E+02 0. 9.
 -4110000    1    1    2    0    0 -1.2874681913E+02  6.5697940842E+01  7.3146078226E+01  3.4094326746E+02  3.0000000000E+02 0. 9.
</event>
<event>
     4   194  1.000000E+00  3.894048E+02  7.891769E-03  1.038086E-01
       2   -1    0    0  101    0  0.0000000000E+00  0.0000000000E+00  1.5133062200E+03  1.5133062200E+03  0.0000000000E+00 0. 9.
      -2   -1    0    0    0  101  0.0000000000E+00  0.0000000000E+00 -1.0136670892E+02  1.0136670892E+02  0.0000000000E+00 0. 9.
 4110000    1    1    2    0    0 -2.3614681174E+02  7.6620982337E+01  7.9251485472E+02  8.8301522444E+02  3.0000000000E+02 0. 9.
 -4110000    1    1    2    0    0  2.3614681174E+02 -7.6620982337E+01  6.1942465634E+02  7.3165770447E+02  3.0000000000E+02 0. 9.
</event>
<event>
     4   194  1.000000E+00  3.197027E+02  7.874125E-03  1.064684E-01
      -2   -1    0    0    0  101  0.0000000000E+00  0.0000000000E+00  8.3094957442E+01  8.3094957442E+01  0.0000000000E+00 0. 9.
       2   -1    0    0  101    0  0.0000000000E+00  0.0000000000E+00 -2.4230711756E+03  2.4230711756E+03  0.0000000000E+00 0. 9.
 -4110000    1    1    2    0    0 -1.1028419667E+02  6.8704520643E+00 -2.9071587262E+02  4.3211749067E+02  3.0000000000E+02 0. 9.
 4110000    1    1    2    0    0  1.1028419667E+02 -6.8704520643E+00 -2.0492603455E+03  2.0740486423E+03  3.0000000000E+02 0. 9.
</event>
<event>
     4   194  1.000000E+00  3.725986E+02  7.887815E-03  1.043919E-01
       2   -1    0    0  101    0  0.0000000000E+00  0.0000000000E+00  1.3618161860E+03  1.3618161860E+03  0.0000000000E+00 0. 9.
      -2   -1    0    0    0  101  0.0000000000E+00  0.0000000000E+00 -1.1809169680E+02  1.1809169680E+02  0.0000000000E+00 0. 9.
 4110000    1    1    2    0    0 -4.3806684355E+00 -2.2093111258E+02  8.9547908234E+02  9.6990336305E+02  3.0000000000E+02 0. 9.
 -4110000    1    1    2    0    0  4.3806684355E+00  2.2093111258E+02  3.4824540688E+02  5.1000451976E+02  3.0000000000E+02 0. 9.
</event>
<event>
     4   194  1.000000E+00  4.952657E+02  7.913389E-03  1.007400E-01
       2   -1    0    0  101    0  0.0000000000E+00  0.0000000000E+00  8.2601968369E+02  8.2601968369E+02  0.0000000000E+00 0. 9.
      -2   -1    0    0    0  101  0.0000000000E+00  0.0000000000E+00 -4.9793258398E+02  4.9793258398E+02  0.0000000000E+00 0. 9.
 4110000    1    1    2    0    0 -2.5279640025E+02  3.0229475704E+02 -2.5652247464E+02  5.5775614753E+02  3.0000000000E+02 0. 9.
 -4110000    1    1    2    0    0  2.5279640025E+02 -3.0229475704E+02  5.8460957435E+02  7.6619612015E+02  3.0000000000E+02 0. 9.
</event>
<event>
     4   194  1.000000E+00  3.185400E+02  7.873799E-03  1.065188E-01
      -2   -1    0    0    0  101  0.0000000000E+00  0.0000000000E+00  9.2353260501E+02  9.2353260501E+02  0.0000000000E+00 0. 9.
       2   -1    0    0  101    0  0.0000000000E+00  0.0000000000E+00 -1.2018547127E+02  1.2018547127E+02  0.0000000000E+00 0. 9.
 -4110000    1    1    2    0    0 -6.8358388743E+01  8.2430949320E+01  5.5456738194E+02  6.3954101653E+02  3.0000000000E+02 0. 9.
 4110000    1    1    2    0    0  6.8358388743E+01 -8.2430949320E+01  2.4877975181E+02  4.0417705975E+02  3.0000000000E+02 0. 9.
</event>
<event>
     4   194  1.000000E+00  5.087550E+02  7.915812E-03  1.004084E-01
       1   -1    0    0  101    0  0.0000000000E+00  0.0000000000E+00  1.5820180820E+03  1.5820180820E+03  0.0000000000E+00 0. 9.
      -1   -1    0    0    0  101  0.0000000000E+00  0.0000000000E+00 -1.9117986176E+02  1.9117986176E+02  0.0000000000E+00 0. 9.
 4110000    1    1    2    0    0 -2.8826475481E+02 -2.9280558569E+02  1.0321127317E+03  1.1506903888E+03  3.0000000000E+02 0. 9.
 -4110000    1    1    2    0    0  2.8826475481E+02  2.9280558569E+02  3.5872548851E+02  6.2250755496E+02  3.0000000000E+02 0. 9.
</event>
<event>
     4   194  1.000000E+00  5.087617E+02  7.915814E-03  1.004082E-01
      -2   -1    0    0    0  101  0.0000000000E+00  0.0000000000E+00  2.4160807187E+02  2.4160807187E+02  0.0000000000E+00 0. 9.
       2   -1    0    0  101    0  0.0000000000E+00  0.0000000000E+00 -1.5503205384E+03  1.5503205384E+03  0.0000000000E+00 0. 9.
 -4110000    1    1    2    0    0 -4.1089632026E+02  1.6402206543E+00 -1.5633255579E+02  5.3223899174E+02  3.0000000000E+02 0. 9.
 4110000    1    1    2    0    0  4.1089632026E+02 -1.6402206543E+00 -1.1523799107E+03  1.2596896185E+03  3.0000000000E+02 0. 9.
</event>
<event>
     4   194  1.000000E+00  5.008978E+02  7.914409E-03  1.006002E-01
      -2   -1    0    0    0  101  0.0000000000E+00  0.0000000000E+00  4.7700393988E+02  4.7700393988E+02  0.0000000000E+00 0. 9.
       2   -1    0    0  101    0  0.0000000000E+00  0.0000000000E+00 -5.2688620112E+02  5.2688620112E+02  0.0000000000E+00 0. 9.
 -4110000    1    1    2    0    0 -2.0819379920E+02  3.4286136723E+02 -4.2220929578E+00  5.0091556298E+02  3.0000000000E+02 0. 9.
 4110000    1    1    2    0    0  2.0819379920E+02 -3.4286136723E+02 -4.5660168287E+01  5.0297457802E+02  3.0000000000E+02 0. 9.
</event>
<event>
     4   194  1.000000E+00  3.943107E+02  7.892891E-03  1.036442E-01
       1   -1    0    0  101    0  0.0000000000E+00  0.0000000000E+00  6.4428328023E+02  6.4428328023E+02  0.0000000000E+00 0. 9.
      -1   -1    0    0    0  101  0.0000000000E+00  0.0000000000E+00 -2.5543431064E+02  2.5543431064E+02  0.0000000000E+00 0. 9.
 4110000    1    1    2    0    0 -2.2657820696E+02 -1.1892549909E+02  3.0015645458E+02  4.9555509828E+02  3.0000000000E+02 0. 9.
 -4110000    1    1    2    0    0  2.2657820696E+02  1.1892549909E+02  8.8692515012E+01  4.0416249260E+02  3.0000000000E+02 0. 9.
</event>
<event>
     4   194  1.000000E+00  3.203198E+02  7.874297E-03  1.064417E-01
       2   -1    0    0  101    0  0.0000000000E+00  0.0000000000E+00  1.0760996262E+03  1.0760996262E+03  0.0000000000E+00 0. 9.
      -2   -1    0    0    0  101  0.0000000000E+00  0.0000000000E+00 -9.9755272443E+01  9.9755272443E+01  0.0000000000E+00 0. 9.
 4110000    1    1    2    0    0  1.0596528278E+02  3.7096382384E+01  6.1173917471E+02  6.9052849370E+02  3.0000000000E+02 0. 9.
 -4110000    1    1    2    0    0 -1.0596528278E+02 -3.7096382384E+01  3.6460517903E+02  4.8532640492E+02  3.0000000000E+02 0. 9.
</event>
<event>
     4   194  1.000000E+00  5.249090E+02  7.918633E-03  1.000253E-01
       2   -1    0    0  101    0  0.0000000000E+00  0.0000000000E+00  1.2435574505E+03  1.2435574505E+03  0.0000000000E+00 0. 9.
      -2   -1    0    0    0  101  0.0000000000E+00  0.0000000000E+00 -2.2460161247E+02  2.2460161247E+02  0.0000000000E+00 0. 9.
 4110000    1    1    2    0    0 -2.1195617758E+02  3.7497206156E+02  4.2412992567E+02  6.7484491701E+02  3.0000000000E+02 0. 9.
 -4110000    1    1    2    0    0  2.1195617758E+02 -3.7497206156E+02  5.9482591234E+02  7.9331414594E+02  3.0000000000E+02 0. 9.
</event>
<event>
     4   194  1.000000E+00  3.110004E+02  7.871662E-03  1.068514E-01
      -1   -1    0    0    0  101  0.0000000000E+00  0.0000000000E+00  1.8444662279E+02  1.8444662279E+02  0.0000000000E+00 0. 9.
       1   -1    0    0  101    0  0.0000000000E+00  0.0000000000E+00 -5.4288431844E+02  5.4288431844E+02  0.0000000000E+00 0. 9.
 -4110000    1    1    2    0    0 -6.4324075350E+01 -5.0829881549E+01 -2.4634816090E+02  3.9674762748E+02  3.0000000000E+02 0. 9.
 4110000    1    1    2    0    0  6.4324075350E+01  5.0829881549E+01 -1.1208953475E+02  3.3058331375E+02  3.0000000000E+02 0. 9.
</event>
<event>
     4   194  1.000000E+00  4.058081E+02  7.895470E-03  1.032688E-01
       2   -1    0    0  101    0  0.0000000000E+00  0.0000000000E+00  2.4247006367E+03  2.4247006367E+03  0.0000000000E+00 0. 9.
      -2   -1    0    0    0  101  0.0000000000E+00  0.0000000000E+00 -7.8570208066E+01  7.8570208066E+01  0.0000000000E+00 0. 9.
 4110000    1    1    2    0    0  6.6745295890E+01  2.6500059415E+02  7.1220046275E+02  8.1970101169E+02  3.0000000000E+02 0. 9.
 -4110000    1    1    2    0    0 -6.6745295890E+01 -2.6500059415E+02  1.6339299659E+03  1.6835698330E+03  3.0000000000E+02 0. 9.
</event>
<event>
     4   194  1.000000E+00  3.387951E+02  7.879305E-03  1.056721E-01
       1   -1    0    0  101    0  0.0000000000E+00  0.0000000000E+00  7.1853495692E+02  7.1853495692E+02  0.0000000000E+00 0. 9.
      -1   -1    0    0    0  101  0.0000000000E+00  0.0000000000E+00 -2.0329089445E+02  2.0329089445E+02  0.0000000000E+00 0. 9.
 4110000    1    1    2    0    0  1.5689269494E+02 -1.2915112139E+01  4.7094384074E+02  5.8014672194E+02  3.0000000000E+02 0. 9.
 -4110000    1    1    2    0    0 -1.5689269494E+02  1.2915112139E+01  4.4300221733E+01  3.4167912944E+02  3.0000000000E+02 0. 9.
</event>
<event>
     4   194  1.000000E+00  3.753845E+02  7.888482E-03  1.042930E-01
      -2   -1    0    0    0  101  0.0000000000E+00  0.0000000000E+00  2.3354862248E+02  2.3354862248E+02  0.0000000000E+00 0. 9.
       2   -1    0    0  101    0  0.0000000000E+00  0.0000000000E+00 -9.2145927762E+02  9.2145927762E+02  0.0000000000E+00 0. 9.
 -4110000    1    1    2    0    0  2.2061330756E+02  4.7363554980E+01 -4.6432827042E+00  3.7541323616E+02  3.0000000000E+02 0. 9.
 4110000    1    1    2    0    0 -2.2061330756E+02 -4.7363554980E+01 -6.8326737243E+02  7.7959466394E+02  3.0000000000E+02 0. 9.
</event>
<event>
     4   194  1.000000E+00  3.039143E+02  7.869606E-03  1.071735E-01
      -2   -1    0    0    0  101  0.0000000000E+00  0.0000000000E+00  3.3788646252E+01  3.3788646252E+01  0.0000000000E+00 0. 9.
       2   -1    0    0  101    0  0.0000000000E+00  0.0000000000E+00 -2.7415531384E+03  2.7415531384E+03  0.0000000000E+00 0. 9.
 -4110000    1    1    2    0    0  4.6454599937E+01  1.4348559833E+01 -1.2790397246E+03  1.3146507248E+03  3.0000000000E+02 0. 9.
 4110000    1    1    2    0    0 -4.6454599937E+01 -1.4348559833E+01 -1.4287247675E+03  1.4606910599E+03  3.0000000000E+02 0. 9.
</event>
<event>
     4   194  1.000000E+00  3.433679E+02  7.880504E-03  1.054897E-01
      -2   -1    0    0    0  101  0.0000000000E+00  0.0000000000E+00  3.0968412674E+02  3.0968412674E+02  0.0000000000E+00 0. 9.
       2   -1    0    0  101    0  0.0000000000E+00  0.0000000000E+00 -4.8425355009E+02  4.8425355009E+02  0.0000000000E+00 0. 9.
 -4110000    1    1    2    0    0 -7.6552807421E+01  1.4846276151E+02 -2.7084137663E+02  4.3732890960E+02  3.0000000000E+02 0. 9.
 4110000    1    1    2    0    0  7.6552807421E+01 -1.4846276151E+02  9.6271953275E+01  3.5660876723E+02  3.0000000000E+02 0. 9.
</event>
<event>
     4   194  1.000000E+00  3.298742E+02  7.876921E-03  1.060369E-01
      -2   -1    0    0    0  101  0.0000000000E+00  0.0000000000E+00  1.4059335906E+02  1.4059335906E+02  0.0000000000E+00 0. 9.
       2   -1    0    0  101    0  0.0000000000E+00  0.0000000000E+00 -1.0391408440E+03  1.0391408440E+03  0.0000000000E+00 0. 9.
 -4110000    1    1    2    0    0 -4.3417185571E+01  1.3012283866E+02 -1.5130657073E+02  3.6291966534E+02  3.0000000000E+02 0. 9.
 4110000    1    1    2    0    0  4.3417185571E+01 -1.3012283866E+02 -7.4724091417E+02  8.1681453767E+02  3.0000000000E+02 0. 9.
</event>
<event>
     4   194  1.000000E+00  4.328846E+02  7.901271E-03  1.024351E-01
       2   -1    0    0  101    0  0.0000000000E+00  0.0000000000E+00  4.7028970847E+02  4.7028970847E+02  0.0000000000E+00 0. 9.
      -2   -1    0    0    0  101  0.0000000000E+00  0.0000000000E+00 -6.0825764662E+02  6.0825764662E+02  0.0000000000E+00 0. 9.
 4110000    1    1    2    0    0 -2.2811601576E+02 -2.1296054917E+02  2.4773297415E+02  4.9875919904E+02  3.0000000000E+02 0. 9.
 -4110000    1    1    2    0    0  2.2811601576E+02  2.1296054917E+02 -3.8570091230E+02  5.7978815605E+02  3.0000000000E+02 0. 9.
</event>
<event>
     4   194  1.000000E+00  3.322789E+02  7.877570E-03  1.059374E-01
      -2   -1    0    0    0  101  0.0000000000E+00  0.0000000000E+00  8.0942789708E+01  8.0942789708E+01  0.0000000000E+00 0. 9.
       2   -1    0    0  101    0  0.0000000000E+00  0.0000000000E+00 -1.4131795636E+03  1.4131795636E+03  0.0000000000E+00 0. 9.
 -4110000    1    1    2    0    0 -9.4535343351E+01 -1.0710893418E+02 -8.0542454000E+02  8.7127374835E+02  3.0000000000E+02 0. 9.
 4110000    1    1    2    0    0  9.4535343351E+01  1.0710893418E+02 -5.2681223389E+02  6.2284860496E+02  3.0000000000E+02 0. 9.
</event>
</LesHouchesEvents>
