<LesHouchesEvents version="1.0">
<header>
<!--
#*********************************************************************
#                                                                    *
#                       MadGraph/MadEvent                            *
#                                                                    *
#                      The new web generation                        *
#                                                                    *
#                   http://madgraph.hep.uiuc.edu                     *
#                   http://madgraph.phys.ucl.ac.be                   *
#                   http://madgraph.roma2.infn.it                    *
#                                                                    *
#            CP3 team                      Tim Stelzer               *
#      Universite de Louvain          University of Illinois         *
#                                                                    *
#....................................................................*
#                                                                    *
# This file contains all the information necessary to reproduce      *
# the events generated:                                              *
#                                                                    *
# 1. software version                                                *
# 2. proc_card.dat      : code generation info including model       *
# 3. param_card.dat     : model primary parameters in the LH format  *
# 4. run_card.dat       : running parameters (collider and cuts)     *
# 5. pythia_card.dat    : present only in the pythia event file      *
# 6. pgs_card.dat       : present only in the pgs event file         *
#                                                                    *
#                                                                    *
#*********************************************************************
-->
<MGVersion>
# MG/ME version    : 4.2.9
# madgraph version : 4.2.5
# template version : 2.2.3
# helas version    : 3.3
# model version    : sm_1.1
</MGVersion>
<MGProcCard>
#*********************************************************************
#                        MadGraph/MadEvent                           *
#                   http://madgraph.hep.uiuc.edu                     *
#                                                                    *
#                          proc_card.dat                             *
#                                                                    *
# This file is used to generate the code for a specific process.     *
# Some notation/conventions:                                         *
#                                                                    *
# 0. Do not modify the TAGS and their order.                         *
# 1. hash/pound is a comment.                                        *
# 2. The charcter after the @ is used as an identifier for the class *
#    of processes. It can be a single or a digit.                    *
# 3. The number of lines for the max couplings depends on how many   *
#    different classes of couplings are present in the model         *
#    In the SM these are just two: QED (which include EW) and QCD    *
# 4. Write "end_coup" after  the couplings list,                     *
#    to tell MG that the couplings input is over.                    *
# 5. Write "done" after the proc list to                             *
#    to tell MG that the proc input is over.                         *
# 6. Some model names available at present are:                      *
#    sm     =  Standard Model                                        *
#    sm_ckm =  Standard Model with Cabibbo matrix                    *
#    mssm   =  Minimal Supersymmetric Standard Model                 *
#    2hdm   =  Generic Two Higgs Doublet model                       *
#    heft   =  Higgs EFT (+Standard Model)                           *
#    usrmod =  User Model                                            *
# 7. Don't leave spaces between the particles name in the            *
#    definition of the multiparticles.                               *
#*********************************************************************
#*********************************************************************
# Process(es) requested : mg2 input                                  *
#*********************************************************************
# Begin PROCESS # This is TAG. Do not modify this line
pp>tt~ @0  #  Process 
QCD=2   # max qcd order
QED=0   # max qed order
end_coup   # the coupling list is over
pp>tt~j  @1 #  Process 
QCD=3   # max qcd order
QED=0   # max qed order
end_coup   # the coupling list is over
pp>tt~jj @2  #  Process 
QCD=4   # max qcd order
QED=0   # max qed order
end_coup   # the coupling list is over
pp>tt~jjj @3  #  Process 
QCD=5   # max qcd order
QED=0   # max qed order
end_coup   # the coupling list is over
done       # the process list is over
# End PROCESS  # This is TAG. Do not modify this line
#*********************************************************************
# Model information                                                  *
#*********************************************************************
# Begin MODEL  # This is TAG. Do not modify this line
smzerobmass 
# End   MODEL  # This is TAG. Do not modify this line
#*********************************************************************
# Start multiparticle definitions                                    *
#*********************************************************************
# Begin MULTIPARTICLES # This is TAG. Do not modify this line
p uu~dd~ss~cc~bb~g 
j uu~dd~ss~cc~bb~g
l+ e+mu+ 
l- e-mu- 
vl vevm 
vl~ ve~vm~
# End  MULTIPARTICLES # This is TAG. Do not modify this line
</MGProcCard>
<slha>
#******************************************************************
#                      MadGraph/MadEvent                          *
#******************************************************************
#   Les Houches friendly file for the SM parameters of MadGraph   *
#        Spectrum and decay widths produced by SMCalc             *
#******************************************************************
#*Please note the following IMPORTANT issues:                     *
#                                                                 *
#0. REFRAIN from editing this file by hand! Some of the parame-   *
#   ters are not independent                                      *
#   (such as G_Fermi, alpha_em, sin(theta_W),MZ,MW) and serious   *
#   problems might be encountered (such as violation of unitarity *
#   or gauge invariance).  Always use a calculator.               *
#                                                                 *
#1. alpha_S(MZ) has been used in the calculation of the parameters*
#   but, for consistency, it will be reset by madgraph to the     *
#   value expected IF the pdfs for collisions with hadrons are    *
#   used. This value is KEPT by madgraph when no pdf are used     *
#   lpp(i)=0 .                                                    *
#                                                                 *
#2. Values of the charm and bottom kinematic (pole) masses are    *
#   those used in the matrix elements and phase space UNLESS they *
#   are set to ZERO from the start in the model (particles.dat)   *
#   This happens, for example,  when using 5-flavor QCD where     *
#   charm and bottom are treated as partons in the initial state  *
#   and a zero mass might be hardwired in the model definition.   *
#                                                                 *
#******************************************************************
Block SMINPUTS      # Standard Model inputs
    1         1.32350785E+02   # alpha_em(MZ)(-1) SM MSbar
    2         1.16639000E-05   # G_Fermi
    3         1.18000000E-01   # alpha_s(MZ) SM MSbar
    4         9.11880000E+01   # Z mass (as input parameter)
Block MGYUKAWA     # Yukawa masses m/v=y/sqrt(2)
#    PDG          YMASS
    5         4.20000000E+00   # mbottom for the Yukawa  y_b
    4         1.42000000E+00   # mcharm  for the Yukawa  y_c
    6         1.64500000E+02   # mtop    for the Yukawa  y_t
   15         1.77700000E+00   # mtau    for the Yukawa  y_ta
Block MGCKM     # CKM elements for MadGraph
    1   1     9.75000000E-01   # Vud for Cabibbo matrix
Block MASS      #  Mass spectrum (kinematic masses)
#       PDG       Mass
        5     4.70000000E+00   # bottom   pole mass
        6     1.70900000E+02   # top      pole mass
       15     1.77700000E+00   # tau      mass
       23     9.11880000E+01   # Z        mass
       24     8.04000000E+01   # W        mass
       25     1.20000000E+02   # H        mass
#            PDG       Width
DECAY         6     1.40736322E+00   # top width
DECAY        23     2.44041149E+00   # Z   width
DECAY        24     2.04614832E+00   # W   width
DECAY        25     5.75450381E-03   # H   width
#        BR           NDA        ID1       ID2
    8.27247499E-02    2           4        -4   # BR( H -> c  cbar  )
    7.17633150E-01    2           5        -5   # BR( H -> b  bbar  )
    0.00000000E+00    2           6        -6   # BR( H -> t  tbar  )
    4.31613962E-02    2          15       -15   # BR( H -> tau- tau+)
    6.90147194E-03    2          23        23   # BR( H -> Z   Z^(*))
    7.47460022E-02    2          24       -24   # BR( H -> W   W^(*))
    3.02414236E-02    2          21        21   # BR( H -> g   g    )
    1.43040946E-03    2          22        22   # BR( H -> A   A    )
</slha>
<MGRunCard>
#*********************************************************************
#                       MadGraph/MadEvent                            *
#                  http://madgraph.hep.uiuc.edu                      *
#                                                                    *
#                        run_card.dat                                *
#                                                                    *
#  This file is used to set the parameters of the run.               *
#                                                                    *
#  Some notation/conventions:                                        *
#                                                                    *
#   Lines starting with a '# ' are info or comments                  *
#                                                                    *
#   mind the format:   value    = variable     ! comment             *
#*********************************************************************
#
#*******************                                                 
# Running parameters
#*******************                                                 
#                                                                    
#*********************************************************************
# Tag name for the run (one word)                                    *
#*********************************************************************
  'fermi'     = run_tag ! name of the run 
#*********************************************************************
# Run to generate the grid pack                                      *
#*********************************************************************
  .true.     = gridpack  !True = setting up the grid pack
#*********************************************************************
# Number of events and rnd seed                                      *
#*********************************************************************
  10000       = nevents ! Number of unweighted events requested 
     153 = iseed   ! rnd seed (0=assigned automatically=default))
#*********************************************************************
# Collider type and energy                                           *
#*********************************************************************
        1     = lpp1  ! beam 1 type (0=NO PDF)
        1     = lpp2  ! beam 2 type (0=NO PDF)
     5000     = ebeam1  ! beam 1 energy in GeV
     5000     = ebeam2  ! beam 2 energy in GeV
#*********************************************************************
# Beam polarization from -100 (left-handed) to 100 (right-handed)    *
#*********************************************************************
        0     = polbeam1 ! beam polarization for beam 1
        0     = polbeam2 ! beam polarization for beam 2
#*********************************************************************
# PDF CHOICE: this automatically fixes also alpha_s and its evol.    *
#*********************************************************************
 'cteq6l1'    = pdlabel     ! PDF set                                     
#*********************************************************************
# Renormalization and factorization scales                           *
#*********************************************************************
 F        = fixed_ren_scale  ! if .true. use fixed ren scale
 F        = fixed_fac_scale  ! if .true. use fixed fac scale
 91.1880  = scale            ! fixed ren scale
 91.1880  = dsqrt_q2fact1    ! fixed fact scale for pdf1
 91.1880  = dsqrt_q2fact2    ! fixed fact scale for pdf2
 1        = scalefact        ! scale factor for event-by-event scales
#*********************************************************************
# Matching - Warning! ickkw > 0 is still beta
#*********************************************************************
 1        = ickkw            ! 0 no matching, 1 MLM, 2 CKKW matching
#*********************************************************************
#                                                                    
#**********************************
# BW cutoff (M+/-bwcutoff*Gamma)
#**********************************
  5  = bwcutoff
#*******************                                                 
# Standard Cuts
#*******************                                                 
#                                                                    
#*********************************************************************
# Minimum and maximum pt's                                           *
#*********************************************************************
 20  = ptj       ! minimum pt for the jets 
 20  = ptb       ! minimum pt for the b 
  0  = pta       ! minimum pt for the photons 
  0  = ptl       ! minimum pt for the charged leptons 
  0  = misset    ! minimum missing Et (sum of neutrino's momenta)
  0  = ptheavy   ! minimum pt for one heavy final state
 1d5 = ptjmax    ! maximum pt for the jets
 1d5 = ptbmax    ! maximum pt for the b
 1d5 = ptamax    ! maximum pt for the photons
 1d5 = ptlmax    ! maximum pt for the charged leptons
 1d5 = missetmax ! maximum missing Et (sum of neutrino's momenta)
#*********************************************************************
# Minimum and maximum E's (in the lab frame)                         *
#*********************************************************************
  0  = ej     ! minimum E for the jets 
  0  = eb     ! minimum E for the b 
  0  = ea     ! minimum E for the photons 
  0  = el     ! minimum E for the charged leptons 
 1d5  = ejmax ! maximum E for the jets
 1d5  = ebmax ! maximum E for the b
 1d5  = eamax ! maximum E for the photons
 1d5  = elmax ! maximum E for the charged leptons
#*********************************************************************
# Maximum and minimum rapidity                                       *
#*********************************************************************
 5d0  = etaj    ! max rap for the jets 
 5d0  = etab    ! max rap for the b 
 2d5  = etaa    ! max rap for the photons 
 2d5  = etal    ! max rap for the charged leptons 
 0d0  = etajmin ! min rap for the jets
 0d0  = etabmin ! min rap for the b
 0d0  = etaamin ! min rap for the photons
 0d0  = etalmin ! main rap for the charged leptons
#*********************************************************************
# Minimum and maximum DeltaR distance                                *
#*********************************************************************
 0.001 = drjj    ! min distance between jets 
 0.001   = drbb    ! min distance between b's 
 0   = drll    ! min distance between leptons 
 0   = draa    ! min distance between gammas 
 0.001   = drbj    ! min distance between b and jet 
 0   = draj    ! min distance between gamma and jet 
 0   = drjl    ! min distance between jet and lepton 
 0   = drab    ! min distance between gamma and b 
 0   = drbl    ! min distance between b and lepton 
 0   = dral    ! min distance between gamma and lepton 
 1d2 = drjjmax ! max distance between jets
 1d2 = drbbmax ! max distance between b's
 1d2 = drllmax ! max distance between leptons
 1d2 = draamax ! max distance between gammas
 1d2 = drbjmax ! max distance between b and jet
 1d2 = drajmax ! max distance between gamma and jet
 1d2 = drjlmax ! max distance between jet and lepton
 1d2 = drabmax ! max distance between gamma and b
 1d2 = drblmax ! max distance between b and lepton
 1d2 = dralmax ! maxdistance between gamma and lepton
#*********************************************************************
# Minimum and maximum invariant mass for pairs                       *
#*********************************************************************
 0   = mmjj    ! min invariant mass of a jet pair 
 0   = mmbb    ! min invariant mass of a b pair 
 0   = mmaa    ! min invariant mass of gamma gamma pair
 0   = mmll    ! min invariant mass of l+l- (same flavour) lepton pair
 1d5 = mmjjmax ! max invariant mass of a jet pair
 1d5 = mmbbmax ! max invariant mass of a b pair
 1d5 = mmaamax ! max invariant mass of gamma gamma pair
 1d5 = mmllmax ! max invariant mass of l+l- (same flavour) lepton pair
#*********************************************************************
# Minimum and maximum invariant mass for all letpons                 *
#*********************************************************************
 0   = mmnl    ! min invariant mass for all letpons (l+- and vl) 
 1d5 = mmnlmax ! max invariant mass for all letpons (l+- and vl) 
#*********************************************************************
# Inclusive cuts                                                     *
#*********************************************************************
 0  = xptj ! minimum pt for at least one jet  
 0  = xptb ! minimum pt for at least one b 
 0  = xpta ! minimum pt for at least one photon 
 0  = xptl ! minimum pt for at least one charged lepton 
#*********************************************************************
# Control the pt's of the jets sorted by pt                          *
#*********************************************************************
 0   = ptj1min ! minimum pt for the leading jet in pt
 0   = ptj2min ! minimum pt for the second jet in pt
 0   = ptj3min ! minimum pt for the third jet in pt
 0   = ptj4min ! minimum pt for the fourth jet in pt
 1d5 = ptj1max ! maximum pt for the leading jet in pt 
 1d5 = ptj2max ! maximum pt for the second jet in pt
 1d5 = ptj3max ! maximum pt for the third jet in pt
 1d5 = ptj4max ! maximum pt for the fourth jet in pt
 0   = cutuse  ! reject event if fails any (0) / all (1) jet pt cuts
#*********************************************************************
# Control the Ht(k)=Sum of k leading jets                            *
#*********************************************************************
 0   = htjmin ! minimum jet HT=Sum(jet pt)
 1d5 = htjmax ! maximum jet HT=Sum(jet pt)
 0   = ht2min ! minimum Ht for the two leading jets
 0   = ht3min ! minimum Ht for the three leading jets
 0   = ht4min ! minimum Ht for the four leading jets
 1d5 = ht2max ! maximum Ht for the two leading jets
 1d5 = ht3max ! maximum Ht for the three leading jets
 1d5 = ht4max ! maximum Ht for the four leading jets
#*********************************************************************
# WBF cuts                                                           *
#*********************************************************************
 0   = xetamin ! minimum rapidity for two jets in the WBF case  
 0   = deltaeta ! minimum rapidity for two jets in the WBF case 
#*********************************************************************
# maximal pdg code for quark to be considered as a jet               *
# otherwise b cuts are applied                                       *
#*********************************************************************
 5 = maxjetflavor
#*********************************************************************
# Jet measure cuts                                                   *
#*********************************************************************
 20   = xqcut   ! minimum kt jet measure between partons
#*********************************************************************
</MGRunCard>
<MGGridCard>
#*********************************************************************
#                       MadGraph/MadEvent                            *
#                  http://madgraph.hep.uiuc.edu                      *
#                                                                    *
#                        grid_card.dat                               *
#                                                                    *
#  This file is used to set the parameters of the run.               *
#                                                                    *
#  Some notation/conventions:                                        *
#                                                                    *
#   Lines starting with a '# ' are info or comments                  *
#                                                                    *
#   mind the format:   value    = variable     ! comment             *
#*********************************************************************
#
#*******************                                                 
# Running parameters
#*******************                                                 
#
#*********************************************************************
#  Tell if this is a grid run or not, false during warm-up on the    *
#  cluster, automatically set to true after warm-up and the gridpack *
#  is ready. The user should not change this.                        *
#*********************************************************************
  .true.  =  GridRun   !True = Runs in the grid mode
#*********************************************************************
# Number of events and rnd seed                                      *
#*********************************************************************
  20 = gevents ! Number of unweighted events requested 
  50 = gseed   ! rnd seed
    -1       = ngran   ! Granularity (minimum # events per channel)
#*********************************************************************
</MGGridCard>
<MGGenerationInfo>
#  Number of Events        :         122
#  Integrated weight (pb)  :  .14755E+04
#  Max wgt                 :  .73264E+00
#  Average wgt             :  .12094E+02
</MGGenerationInfo>
<MGParamCMS>
# All parameters that are given here can be selected to be set from this
# header by setting the # corresponding CMSSW config parameter to -1
# In case this is done, the entries here must exist of an error message
# is given.
      0      = minjets ! Smallest number of additional light flavour jets
      3      = maxjets ! Largest number (inclusive ktMLM matching multipl.)
</MGParamCMS>
</header>
<init>
  2212  2212  0.50000000000E+04  0.50000000000E+04 0 0 10042 10042 3  3
  0.16932125000E+03  0.17343934426E+00  0.73263561074E+00   0
  0.87079500000E+03  0.89197377049E+00  0.73263561074E+00   1
  0.43539750000E+03  0.44598688525E+00  0.73263561074E+00   2
</init>
<event>
 5   1  0.1000000E+01  0.1726545E+03  0.7555679E-02  0.1180465E+00
       21   -1    0    0  501  502  0.00000000000E+00  0.00000000000E+00  0.18688742027E+03  0.18688742027E+03  0.00000000000E+00 0.  1.
        2   -1    0    0  503    0  0.00000000000E+00  0.00000000000E+00 -0.59850702019E+03  0.59850702019E+03  0.00000000000E+00 0. -1.
        6    1    1    2  503    0 -0.29167810590E+02  0.43110739918E+02 -0.16218916918E+02  0.17938550760E+03  0.17090000000E+03 0.  1.
       -6    1    1    2    0  502  0.62885393833E+01 -0.12215339632E+01  0.33660478990E+02  0.17430110648E+03  0.17090000000E+03 0. -1.
        2    1    1    2  501    0  0.22879271206E+02 -0.41889205955E+02 -0.42906116200E+03  0.43170782638E+03  0.00000000000E+00 0. -1.
#  0.1726545E+03  0.1726545E+03  0.4773014E+02
</event>
<event>
 4   0  0.1000000E+01  0.2452097E+03  0.7555679E-02  0.1123683E+00
       21   -1    0    0  502  503  0.00000000000E+00  0.00000000000E+00  0.23825062552E+03  0.23825062552E+03  0.00000000000E+00 0. -1.
       21   -1    0    0  501  502  0.00000000000E+00  0.00000000000E+00 -0.28126024235E+03  0.28126024235E+03  0.00000000000E+00 0.  1.
        6    1    1    2  501    0  0.17314768866E+03  0.30673797762E+02 -0.10475211149E+03  0.26664736792E+03  0.17090000000E+03 0. -1.
       -6    1    1    2    0  503 -0.17314768866E+03 -0.30673797762E+02  0.61742494657E+02  0.25286349994E+03  0.17090000000E+03 0. -1.
#  0.2452097E+03  0.2452097E+03
</event>
<event>
 5   1  0.1000000E+01  0.2026938E+03  0.7555679E-02  0.1153807E+00
       21   -1    0    0  501  502  0.00000000000E+00  0.00000000000E+00  0.22079880529E+03  0.22079880529E+03  0.00000000000E+00 0.  1.
       21   -1    0    0  502  503  0.00000000000E+00  0.00000000000E+00 -0.16743514974E+03  0.16743514974E+03  0.00000000000E+00 0. -1.
        6    1    1    2  501    0 -0.57919885743E+02  0.11462218883E+02  0.39434481632E+02  0.18506210841E+03  0.17090000000E+03 0. -1.
       -6    1    1    2    0  504  0.35554739982E+02 -0.18495881381E+02  0.24887914281E+02  0.17729200614E+03  0.17090000000E+03 0.  1.
       21    1    1    2  504  503  0.22365145761E+02  0.70336624985E+01 -0.10958740359E+02  0.25879840481E+02  0.00000000000E+00 0.  1.
#  0.1808118E+03  0.2026938E+03  0.2296504E+02
</event>
<event>
 5   1  0.1000000E+01  0.2203645E+03  0.7555679E-02  0.1140387E+00
       21   -1    0    0  501  502  0.00000000000E+00  0.00000000000E+00  0.14689037039E+03  0.14689037039E+03  0.00000000000E+00 0.  1.
        2   -1    0    0  503    0  0.00000000000E+00  0.00000000000E+00 -0.14258460074E+04  0.14258460074E+04  0.00000000000E+00 0. -1.
        6    1    1    2  503    0  0.12003140999E+03 -0.40064525567E+02 -0.41294533627E+02  0.21662122264E+03  0.17090000000E+03 0.  1.
       -6    1    1    2    0  502 -0.13637720574E+03  0.96899446318E+02 -0.18646303474E+03  0.30325487344E+03  0.17090000000E+03 0.  1.
        2    1    1    2  501    0  0.16345795756E+02 -0.56834920751E+02 -0.10511980687E+04  0.10528602818E+04  0.00000000000E+00 0. -1.
#  0.2203645E+03  0.2203645E+03  0.5913876E+02
</event>
<event>
 4   0  0.1000000E+01  0.1709358E+03  0.7555679E-02  0.1182169E+00
       21   -1    0    0  501  502  0.00000000000E+00  0.00000000000E+00  0.95088365628E+03  0.95088365628E+03  0.00000000000E+00 0.  1.
       21   -1    0    0  502  503  0.00000000000E+00  0.00000000000E+00 -0.30973015669E+02  0.30973015669E+02  0.00000000000E+00 0.  1.
        6    1    1    2  501    0 -0.19396520294E+01 -0.29137443275E+01  0.50359031609E+03  0.53181036903E+03  0.17090000000E+03 0.  1.
       -6    1    1    2    0  503  0.19396520294E+01  0.29137443275E+01  0.41632032452E+03  0.45004630291E+03  0.17090000000E+03 0.  1.
#  0.1709358E+03  0.1709358E+03
</event>
<event>
 6   2  0.1000000E+01  0.2563665E+03  0.7555679E-02  0.1116870E+00
       21   -1    0    0  503  504  0.00000000000E+00  0.00000000000E+00  0.63956900290E+03  0.63956900290E+03  0.00000000000E+00 0.  1.
       21   -1    0    0  501  502  0.00000000000E+00  0.00000000000E+00 -0.10256159666E+04  0.10256159666E+04  0.00000000000E+00 0.  1.
        6    1    1    2  501    0  0.12336430328E+03 -0.13752321206E+03 -0.23497314901E+03  0.34431174237E+03  0.17090000000E+03 0.  1.
       -6    1    1    2    0  505 -0.10558108468E+03  0.98452138315E+02  0.21051339817E+03  0.30718543225E+03  0.17090000000E+03 0.  1.
       21    1    1    2  503  502  0.25339364831E+02 -0.57333525193E+01 -0.68442377984E+03  0.68491668482E+03  0.00000000000E+00 0. -1.
       21    1    1    2  505  504 -0.43122583436E+02  0.44804426261E+02  0.32283656699E+03  0.32877111005E+03  0.00000000000E+00 0.  1.
#  0.2563665E+03  0.2563665E+03  0.6199640E+02  0.2597989E+02
</event>
<event>
 6   2  0.1000000E+01  0.3424755E+03  0.7555679E-02  0.1074465E+00
        2   -1    0    0  504    0  0.00000000000E+00  0.00000000000E+00  0.16203987193E+04  0.16203987193E+04  0.00000000000E+00 0.  1.
       21   -1    0    0  501  502  0.00000000000E+00  0.00000000000E+00 -0.62102571788E+03  0.62102571788E+03  0.00000000000E+00 0.  1.
        6    1    1    2  503    0  0.16436891470E+03  0.27629490826E+03  0.20457347084E+03  0.41762798209E+03  0.17090000000E+03 0.  1.
       -6    1    1    2    0  502 -0.13418473460E+03 -0.25977810290E+03 -0.45088175524E+03  0.56390723789E+03  0.17090000000E+03 0.  1.
        2    1    1    2  501    0 -0.98242690763E+02 -0.60054240969E+01  0.99707021630E+03  0.10019165173E+04  0.00000000000E+00 0.  1.
       21    1    1    2  504  503  0.68058510668E+02 -0.10511381271E+02  0.24861106949E+03  0.25797269988E+03  0.00000000000E+00 0. -1.
#  0.3424755E+03  0.3424755E+03  0.5038078E+02  0.6886545E+02
</event>
<event>
 6   2  0.1000000E+01  0.3196951E+03  0.7555679E-02  0.1084250E+00
       21   -1    0    0  501  502  0.00000000000E+00  0.00000000000E+00  0.51806964570E+03  0.51806964570E+03  0.00000000000E+00 0. -1.
       21   -1    0    0  503  504  0.00000000000E+00  0.00000000000E+00 -0.27872863662E+03  0.27872863662E+03  0.00000000000E+00 0.  1.
        6    1    1    2  501    0  0.27666806900E+03  0.96923257149E+02  0.11677904120E+03  0.35886417019E+03  0.17090000000E+03 0. -1.
       -6    1    1    2    0  505 -0.23930085036E+03 -0.68095575135E+02  0.11790227001E+03  0.32405193968E+03  0.17090000000E+03 0.  1.
       21    1    1    2  505  504 -0.35001607000E+02  0.28452991845E+02 -0.22542220012E+02  0.50426549759E+02  0.00000000000E+00 0.  1.
       21    1    1    2  503  502 -0.23656116456E+01 -0.57280673860E+02  0.27201917885E+02  0.63455622705E+02  0.00000000000E+00 0.  1.
#  0.3196951E+03  0.3196951E+03  0.5537638E+02  0.4510749E+02
</event>
<event>
 6   2  0.1000000E+01  0.1933902E+03  0.7555679E-02  0.1161490E+00
        2   -1    0    0  504    0  0.00000000000E+00  0.00000000000E+00  0.16276753117E+04  0.16276753117E+04  0.00000000000E+00 0.  1.
       21   -1    0    0  503  504  0.00000000000E+00  0.00000000000E+00 -0.37999520811E+03  0.37999520811E+03  0.00000000000E+00 0.  1.
        6    1    1    2  503    0 -0.62579671300E+02 -0.20414389214E+02 -0.12503828232E+03  0.22175289083E+03  0.17090000000E+03 0.  1.
       -6    1    1    2    0  502  0.43690425095E+02  0.13883954517E+03 -0.14232910873E+03  0.26580003337E+03  0.17090000000E+03 0. -1.
        2    1    1    2  501    0  0.13618347171E+02 -0.59497408804E+02  0.95651283967E+03  0.95845824817E+03  0.00000000000E+00 0.  1.
       21    1    1    2  502  501  0.52708990335E+01 -0.58927747151E+02  0.55853465498E+03  0.56165934745E+03  0.00000000000E+00 0.  1.
#  0.1933902E+03  0.1933902E+03  0.1240508E+03  0.3124678E+02
</event>
<event>
 5   1  0.1000000E+01  0.1772230E+03  0.7555679E-02  0.1176041E+00
       21   -1    0    0  501  502  0.00000000000E+00  0.00000000000E+00  0.10683660620E+04  0.10683660620E+04  0.00000000000E+00 0. -1.
       21   -1    0    0  503  504  0.00000000000E+00  0.00000000000E+00 -0.21775024403E+03  0.21775024403E+03  0.00000000000E+00 0. -1.
        6    1    1    2  501    0  0.25267491460E+02 -0.13177960237E+03  0.99613065018E+02  0.23902694921E+03  0.17090000000E+03 0. -1.
       -6    1    1    2    0  504  0.33404509814E+02  0.26641281175E+02  0.86411591471E+03  0.88188930326E+03  0.17090000000E+03 0. -1.
       21    1    1    2  503  502 -0.58672001275E+02  0.10513832120E+03 -0.11311316179E+03  0.16520005354E+03  0.00000000000E+00 0. -1.
#  0.1772230E+03  0.1772230E+03  0.1204013E+03
</event>
<event>
 5   1  0.1000000E+01  0.1791119E+03  0.7555679E-02  0.1174255E+00
       21   -1    0    0  503  504  0.00000000000E+00  0.00000000000E+00  0.40949949764E+03  0.40949949764E+03  0.00000000000E+00 0. -1.
       21   -1    0    0  501  502  0.00000000000E+00  0.00000000000E+00 -0.51346541547E+03  0.51346541547E+03  0.00000000000E+00 0. -1.
        6    1    1    2  501    0 -0.34112751571E+02 -0.83089697427E+02  0.75365686244E+02  0.20725437101E+03  0.17090000000E+03 0.  1.
       -6    1    1    2    0  504  0.58130715615E+02 -0.12453329403E+02  0.23116301472E+03  0.29355990000E+03  0.17090000000E+03 0. -1.
       21    1    1    2  503  502 -0.24017964044E+02  0.95543026829E+02 -0.41049461880E+03  0.42215064211E+03  0.00000000000E+00 0. -1.
#  0.1791119E+03  0.1791119E+03  0.9851565E+02
</event>
<event>
 6   2  0.1000000E+01  0.2179310E+03  0.7555679E-02  0.1142152E+00
       21   -1    0    0  501  502  0.00000000000E+00  0.00000000000E+00  0.27595750528E+03  0.27595750528E+03  0.00000000000E+00 0. -1.
       21   -1    0    0  502  503  0.00000000000E+00  0.00000000000E+00 -0.36546849654E+03  0.36546849654E+03  0.00000000000E+00 0. -1.
        6    1    1    2  501    0  0.11607081045E+03 -0.10718666952E+03 -0.10301222932E+03  0.25451865266E+03  0.17090000000E+03 0. -1.
       -6    1    1    2    0  505 -0.52108141044E+02  0.13191733333E+03  0.70551770810E+02  0.23302747383E+03  0.17090000000E+03 0. -1.
       21    1    1    2  504  503 -0.28547760166E+02  0.30778757724E+02 -0.74720400215E+02  0.85705570098E+02  0.00000000000E+00 0. -1.
       21    1    1    2  505  504 -0.35414909241E+02 -0.55509421541E+02  0.17669867468E+02  0.68174305223E+02  0.00000000000E+00 0. -1.
#  0.2179310E+03  0.2179310E+03  0.6500639E+02  0.4197983E+02
</event>
<event>
 5   1  0.1000000E+01  0.1835643E+03  0.7555679E-02  0.1170138E+00
        2   -1    0    0  503    0  0.00000000000E+00  0.00000000000E+00  0.20091721901E+03  0.20091721901E+03  0.00000000000E+00 0.  1.
       21   -1    0    0  502  503  0.00000000000E+00  0.00000000000E+00 -0.24772486966E+03  0.24772486966E+03  0.00000000000E+00 0.  1.
        6    1    1    2  502    0 -0.51138094158E+02 -0.49409407617E+02  0.21275998251E+02  0.18632195882E+03  0.17090000000E+03 0.  1.
       -6    1    1    2    0  501  0.62615754316E+02  0.23485291075E+02 -0.10831766926E+03  0.21310049052E+03  0.17090000000E+03 0.  1.
        2    1    1    2  501    0 -0.11477660158E+02  0.25924116543E+02  0.40234020368E+02  0.49219639334E+02  0.00000000000E+00 0.  1.
#  0.1835643E+03  0.1835643E+03  0.2835131E+02
</event>
<event>
 6   2  0.1000000E+01  0.3526097E+03  0.7555679E-02  0.1070373E+00
       21   -1    0    0  503  504  0.00000000000E+00  0.00000000000E+00  0.35392096379E+03  0.35392096379E+03  0.00000000000E+00 0. -1.
        1   -1    0    0  504    0  0.00000000000E+00  0.00000000000E+00 -0.17273174508E+04  0.17273174508E+04  0.00000000000E+00 0. -1.
        6    1    1    2  503    0  0.15685307427E+02  0.30837578789E+03  0.20648223625E+03  0.40888064189E+03  0.17090000000E+03 0. -1.
       -6    1    1    2    0  502 -0.59424231343E+02 -0.30292021639E+03 -0.68233501107E+03  0.76816650155E+03  0.17090000000E+03 0.  1.
        1    1    1    2  501    0  0.14610293768E+02  0.30734479167E+02 -0.71565170260E+03  0.71646034665E+03  0.00000000000E+00 0. -1.
       21    1    1    2  502  501  0.29128630147E+02 -0.36190050669E+02 -0.18189200956E+03  0.18773092448E+03  0.00000000000E+00 0. -1.
#  0.3526097E+03  0.3526097E+03  0.3403041E+02  0.4411213E+02
</event>
<event>
 6   2  0.1000000E+01  0.1724735E+03  0.7555679E-02  0.1180643E+00
       21   -1    0    0  501  502  0.00000000000E+00  0.00000000000E+00  0.10135713283E+03  0.10135713283E+03  0.00000000000E+00 0.  1.
        2   -1    0    0  504    0  0.00000000000E+00  0.00000000000E+00 -0.10125209188E+04  0.10125209188E+04  0.00000000000E+00 0.  1.
        6    1    1    2  503    0 -0.24565566744E+02 -0.56993387183E+01 -0.88964921638E+02  0.19431293527E+03  0.17090000000E+03 0. -1.
       -6    1    1    2    0  502  0.16237129569E+02 -0.29247692259E+02 -0.11477385595E+03  0.20856394676E+03  0.17090000000E+03 0.  1.
        2    1    1    2  501    0  0.26504828709E+02 -0.17674954911E+01 -0.39650070470E+03  0.39738953033E+03  0.00000000000E+00 0.  1.
       21    1    1    2  504  503 -0.18176391535E+02  0.36714526468E+02 -0.31092430370E+03  0.31361163929E+03  0.00000000000E+00 0.  1.
#  0.1724735E+03  0.1724735E+03  0.2656370E+02  0.3612902E+02
</event>
<event>
 4   0  0.1000000E+01  0.1978499E+03  0.7555679E-02  0.1157749E+00
       21   -1    0    0  502  503  0.00000000000E+00  0.00000000000E+00  0.13167373264E+03  0.13167373264E+03  0.00000000000E+00 0.  1.
       21   -1    0    0  501  502  0.00000000000E+00  0.00000000000E+00 -0.30283148460E+03  0.30283148460E+03  0.00000000000E+00 0.  1.
        6    1    1    2  501    0  0.67179120297E+02 -0.73652907731E+02 -0.11498125604E+03  0.22883462208E+03  0.17090000000E+03 0.  1.
       -6    1    1    2    0  503 -0.67179120297E+02  0.73652907731E+02 -0.56176495915E+02  0.20567059516E+03  0.17090000000E+03 0.  1.
#  0.1978499E+03  0.1978499E+03
</event>
<event>
 6   2  0.1000000E+01  0.1938877E+03  0.7555679E-02  0.1161068E+00
       21   -1    0    0  504  505  0.00000000000E+00  0.00000000000E+00  0.11623755913E+03  0.11623755913E+03  0.00000000000E+00 0.  1.
       21   -1    0    0  502  503  0.00000000000E+00  0.00000000000E+00 -0.71004598714E+03  0.71004598714E+03  0.00000000000E+00 0.  1.
        6    1    1    2  501    0 -0.11159239093E+03 -0.31955853380E+02 -0.33174263038E+03  0.39081200223E+03  0.17090000000E+03 0.  1.
       -6    1    1    2    0  505  0.58301548432E+02  0.35765969471E+02 -0.95867682788E+02  0.20754685670E+03  0.17090000000E+03 0.  1.
       21    1    1    2  504  503  0.32566288071E+02 -0.12623096663E+02  0.20081545990E+02  0.40288635835E+02  0.00000000000E+00 0.  1.
       21    1    1    2  502  501  0.20724554422E+02  0.88129805728E+01 -0.18627966084E+03  0.18763605151E+03  0.00000000000E+00 0. -1.
#  0.1938877E+03  0.1938877E+03  0.3524017E+02  0.2252056E+02
</event>
<event>
 5   1  0.1000000E+01  0.1931117E+03  0.7555679E-02  0.1161728E+00
       21   -1    0    0  501  502  0.00000000000E+00  0.00000000000E+00  0.34643066842E+03  0.34643066842E+03  0.00000000000E+00 0. -1.
        1   -1    0    0  503    0  0.00000000000E+00  0.00000000000E+00 -0.10543567917E+04  0.10543567917E+04  0.00000000000E+00 0.  1.
        6    1    1    2  503    0  0.28808256079E+02  0.56586829491E+02 -0.86039530703E+02  0.20159760845E+03  0.17090000000E+03 0.  1.
       -6    1    1    2    0  502 -0.10452295329E+03  0.54050449185E+01  0.25080101307E+03  0.32103305193E+03  0.17090000000E+03 0. -1.
        1    1    1    2  501    0  0.75714697210E+02 -0.61991874409E+02 -0.87268760564E+03  0.87815679972E+03  0.00000000000E+00 0.  1.
#  0.1931117E+03  0.1931117E+03  0.9785555E+02
</event>
<event>
 5   1  0.1000000E+01  0.2668752E+03  0.7555679E-02  0.1110788E+00
        2   -1    0    0  503    0  0.00000000000E+00  0.00000000000E+00  0.16195278590E+04  0.16195278590E+04  0.00000000000E+00 0. -1.
       21   -1    0    0  501  502  0.00000000000E+00  0.00000000000E+00 -0.20918231117E+03  0.20918231117E+03  0.00000000000E+00 0. -1.
        6    1    1    2  503    0 -0.10379155607E+03  0.20407404701E+03  0.46089274005E+03  0.54226177406E+03  0.17090000000E+03 0. -1.
       -6    1    1    2    0  502  0.59391115268E+02 -0.83518618131E+01 -0.10749449896E+03  0.21061561071E+03  0.17090000000E+03 0. -1.
        2    1    1    2  501    0  0.44400440806E+02 -0.19572218519E+03  0.10569473067E+04  0.10758327854E+04  0.00000000000E+00 0. -1.
#  0.2668752E+03  0.1811184E+03  0.2049770E+03
</event>
<event>
 5   1  0.1000000E+01  0.1714384E+03  0.7555679E-02  0.1181668E+00
       21   -1    0    0  501  502  0.00000000000E+00  0.00000000000E+00  0.16219330740E+03  0.16219330740E+03  0.00000000000E+00 0. -1.
       21   -1    0    0  502  503  0.00000000000E+00  0.00000000000E+00 -0.15521698491E+04  0.15521698491E+04  0.00000000000E+00 0.  1.
        6    1    1    2  501    0 -0.24737162416E+02  0.11863921802E+02  0.49918767050E+01  0.17316006664E+03  0.17090000000E+03 0.  1.
       -6    1    1    2    0  504  0.18128091551E+00  0.14482542918E+02 -0.28027265495E+02  0.17378755572E+03  0.17090000000E+03 0. -1.
       21    1    1    2  504  503  0.24555881501E+02 -0.26346464721E+02 -0.13669411529E+04  0.13674155341E+04  0.00000000000E+00 0.  1.
#  0.1714384E+03  0.1714384E+03  0.3601566E+02
</event>
<event>
 6   2  0.1000000E+01  0.1749959E+03  0.7555679E-02  0.1178179E+00
       21   -1    0    0  501  502  0.00000000000E+00  0.00000000000E+00  0.24362073937E+03  0.24362073937E+03  0.00000000000E+00 0. -1.
       21   -1    0    0  504  505  0.00000000000E+00  0.00000000000E+00 -0.10259175202E+04  0.10259175202E+04  0.00000000000E+00 0.  1.
        6    1    1    2  501    0 -0.11515077803E+01  0.85343082582E+02 -0.17408049378E+02  0.19181923235E+03  0.17090000000E+03 0. -1.
       -6    1    1    2    0  505 -0.33188271266E+02  0.17070412244E+02  0.50914229171E+02  0.18218652271E+03  0.17090000000E+03 0. -1.
       21    1    1    2  503  502 -0.57055301665E+01 -0.41482567424E+02  0.26842745172E+02  0.49738209085E+02  0.00000000000E+00 0.  1.
       21    1    1    2  504  503  0.40045309213E+02 -0.60930927402E+02 -0.84264570583E+03  0.84579429548E+03  0.00000000000E+00 0.  1.
#  0.1749959E+03  0.1749959E+03  0.4187310E+02  0.7315438E+02
</event>
<event>
 6   2  0.1000000E+01  0.2070275E+03  0.7555679E-02  0.1150381E+00
       21   -1    0    0  503  504  0.00000000000E+00  0.00000000000E+00  0.26161371630E+03  0.26161371630E+03  0.00000000000E+00 0.  1.
        2   -1    0    0  504    0  0.00000000000E+00  0.00000000000E+00 -0.54654392090E+03  0.54654392090E+03  0.00000000000E+00 0.  1.
        6    1    1    2  503    0 -0.10666006485E+02  0.12229131454E+03  0.12404696118E+03  0.24426090126E+03  0.17090000000E+03 0.  1.
       -6    1    1    2    0  502  0.14115338340E+03 -0.59200081724E+02 -0.30624660058E+03  0.38265221506E+03  0.17090000000E+03 0.  1.
        2    1    1    2  501    0 -0.83378381225E+02 -0.50892053924E+02 -0.84887704336E+02  0.12941359262E+03  0.00000000000E+00 0.  1.
       21    1    1    2  502  501 -0.47108995687E+02 -0.12199178889E+02 -0.17842860863E+02  0.51830928257E+02  0.00000000000E+00 0.  1.
#  0.2070275E+03  0.2070275E+03  0.1493185E+03  0.2533611E+02
</event>
<event>
 6   2  0.1000000E+01  0.2071941E+03  0.7555679E-02  0.1150251E+00
        2   -1    0    0  504    0  0.00000000000E+00  0.00000000000E+00  0.27080385848E+04  0.27080385848E+04  0.00000000000E+00 0.  1.
       21   -1    0    0  502  503  0.00000000000E+00  0.00000000000E+00 -0.12988081773E+03  0.12988081773E+03  0.00000000000E+00 0.  1.
        6    1    1    2  502    0  0.11256887485E+03 -0.76787972409E+02  0.10385352336E+03  0.24199278627E+03  0.17090000000E+03 0.  1.
       -6    1    1    2    0  501 -0.88499164233E+02  0.44605943368E+02  0.10934620607E+03  0.22579901469E+03  0.17090000000E+03 0.  1.
        2    1    1    2  501    0 -0.61399020043E+02  0.54597999319E+02  0.21007075537E+04  0.21023137271E+04  0.00000000000E+00 0.  1.
       21    1    1    2  504  503  0.37329309426E+02 -0.22415970278E+02  0.26425048403E+03  0.26781387450E+03  0.00000000000E+00 0.  1.
#  0.2071941E+03  0.2071941E+03  0.4586532E+02  0.4354254E+02
</event>
<event>
 5   1  0.1000000E+01  0.2197698E+03  0.7555679E-02  0.1140816E+00
        1   -1    0    0  503    0  0.00000000000E+00  0.00000000000E+00  0.10867594200E+04  0.10867594200E+04  0.00000000000E+00 0.  1.
       21   -1    0    0  501  502  0.00000000000E+00  0.00000000000E+00 -0.60680308591E+02  0.60680308591E+02  0.00000000000E+00 0.  1.
        6    1    1    2  503    0  0.15527730865E+03  0.60674899237E+01  0.41085847307E+03  0.47133783204E+03  0.17090000000E+03 0.  1.
       -6    1    1    2    0  502 -0.12326594419E+03  0.12206428091E+02  0.35289817798E+03  0.41120241232E+03  0.17090000000E+03 0.  1.
        1    1    1    2  501    0 -0.32011364462E+02 -0.18273918014E+02  0.26232246033E+03  0.26489948420E+03  0.00000000000E+00 0.  1.
#  0.2197698E+03  0.2197698E+03  0.3686005E+02
</event>
<event>
 5   1  0.1000000E+01  0.1892945E+03  0.7555679E-02  0.1165025E+00
        2   -1    0    0  503    0  0.00000000000E+00  0.00000000000E+00  0.66401449038E+03  0.66401449038E+03  0.00000000000E+00 0.  1.
       21   -1    0    0  502  503  0.00000000000E+00  0.00000000000E+00 -0.38404701247E+03  0.38404701247E+03  0.00000000000E+00 0. -1.
        6    1    1    2  502    0 -0.90199472458E+02 -0.17304017602E+02 -0.25740008607E+03  0.32233055730E+03  0.17090000000E+03 0. -1.
       -6    1    1    2    0  501  0.51928876764E+02  0.14525560128E+02 -0.76463073132E+01  0.17936799089E+03  0.17090000000E+03 0. -1.
        2    1    1    2  501    0  0.38270595694E+02  0.27784574737E+01  0.54501387130E+03  0.54636295467E+03  0.00000000000E+00 0.  1.
#  0.1892945E+03  0.1892945E+03  0.3837132E+02
</event>
<event>
 5   1  0.1000000E+01  0.1977085E+03  0.7555679E-02  0.1157866E+00
        1   -1    0    0  503    0  0.00000000000E+00  0.00000000000E+00  0.22492358227E+04  0.22492358227E+04  0.00000000000E+00 0. -1.
       21   -1    0    0  501  502  0.00000000000E+00  0.00000000000E+00 -0.63327842135E+02  0.63327842135E+02  0.00000000000E+00 0. -1.
        6    1    1    2  503    0  0.85639973163E+02  0.65448858044E+02  0.38836668855E+03  0.43778219790E+03  0.17090000000E+03 0. -1.
       -6    1    1    2    0  502 -0.89011601477E+02 -0.35418722472E+02  0.21092697854E+03  0.28787940422E+03  0.17090000000E+03 0. -1.
        1    1    1    2  501    0  0.33716283145E+01 -0.30030135572E+02  0.15866143135E+04  0.15869020627E+04  0.00000000000E+00 0. -1.
#  0.1977085E+03  0.1977085E+03  0.3021882E+02
</event>
<event>
 5   1  0.1000000E+01  0.1961473E+03  0.7555679E-02  0.1159165E+00
       21   -1    0    0  502  503  0.00000000000E+00  0.00000000000E+00  0.79043618864E+03  0.79043618864E+03  0.00000000000E+00 0.  1.
        2   -1    0    0  503    0  0.00000000000E+00  0.00000000000E+00 -0.12307007027E+03  0.12307007027E+03  0.00000000000E+00 0.  1.
        6    1    1    2  502    0  0.87032167203E+02 -0.44807745249E+01  0.51919703515E+03  0.55350433312E+03  0.17090000000E+03 0.  1.
       -6    1    1    2    0  501 -0.11521683739E+03  0.59281708095E+02  0.18917825868E+03  0.28597983161E+03  0.17090000000E+03 0.  1.
        2    1    1    2  501    0  0.28184670184E+02 -0.54800933570E+02 -0.41009175467E+02  0.74022094174E+02  0.00000000000E+00 0.  1.
#  0.1961473E+03  0.1961473E+03  0.6162400E+02
</event>
<event>
 6   2  0.1000000E+01  0.2146370E+03  0.7555679E-02  0.1144581E+00
        2   -1    0    0  504    0  0.00000000000E+00  0.00000000000E+00  0.89702347866E+03  0.89702347866E+03  0.00000000000E+00 0. -1.
       21   -1    0    0  502  503  0.00000000000E+00  0.00000000000E+00 -0.21955013566E+03  0.21955013566E+03  0.00000000000E+00 0.  1.
        6    1    1    2  502    0  0.19592886847E+02  0.20764259761E+03  0.10112328595E+03  0.28797926751E+03  0.17090000000E+03 0.  1.
       -6    1    1    2    0  501  0.32447568674E+02 -0.94344675521E+02 -0.30247749462E+02  0.20018865817E+03  0.17090000000E+03 0.  1.
        2    1    1    2  501    0 -0.14767645877E+02 -0.66721081272E+02  0.51219882741E+03  0.51673728804E+03  0.00000000000E+00 0. -1.
       21    1    1    2  504  503 -0.37272809644E+02 -0.46576840813E+02  0.94398979102E+02  0.11166840061E+03  0.00000000000E+00 0.  1.
#  0.2146370E+03  0.2146370E+03  0.1044242E+03  0.5965454E+02
</event>
<event>
 5   1  0.1000000E+01  0.1826767E+03  0.7555679E-02  0.1170948E+00
        2   -1    0    0  503    0  0.00000000000E+00  0.00000000000E+00  0.18867038238E+04  0.18867038238E+04  0.00000000000E+00 0.  1.
       21   -1    0    0  502  503  0.00000000000E+00  0.00000000000E+00 -0.81927108601E+02  0.81927108601E+02  0.00000000000E+00 0. -1.
        6    1    1    2  502    0 -0.69258137048E+02  0.11831840521E+02  0.62839063486E+02  0.19517233384E+03  0.17090000000E+03 0. -1.
       -6    1    1    2    0  501  0.42534399101E+02 -0.28654000421E+01  0.48148732754E+03  0.51269312674E+03  0.17090000000E+03 0. -1.
        2    1    1    2  501    0  0.26723737947E+02 -0.89664404787E+01  0.12604503241E+04  0.12607654718E+04  0.00000000000E+00 0.  1.
#  0.1826767E+03  0.1826767E+03  0.2818786E+02
</event>
<event>
 6   2  0.1000000E+01  0.5702227E+03  0.7555679E-02  0.1007147E+00
       21   -1    0    0  503  504  0.00000000000E+00  0.00000000000E+00  0.26454747829E+03  0.26454747829E+03  0.00000000000E+00 0.  1.
        2   -1    0    0  501    0  0.00000000000E+00  0.00000000000E+00 -0.22251011246E+04  0.22251011246E+04  0.00000000000E+00 0. -1.
        6    1    1    2  501    0 -0.11543343928E+02 -0.51447239965E+03 -0.58217444583E+03  0.79558091616E+03  0.17090000000E+03 0. -1.
       -6    1    1    2    0  504  0.26920991271E+03  0.53893324736E+03 -0.58735853111E+03  0.85855685676E+03  0.17090000000E+03 0.  1.
        2    1    1    2  502    0 -0.23759105098E+03 -0.33697252570E+01 -0.73371316535E+03  0.77123010286E+03  0.00000000000E+00 0. -1.
       21    1    1    2  503  502 -0.20075517804E+02 -0.21091122460E+02 -0.57307504054E+02  0.64280727147E+02  0.00000000000E+00 0. -1.
#  0.5702227E+03  0.5702227E+03  0.2690068E+03  0.2566277E+02
</event>
<event>
 5   1  0.1000000E+01  0.1931898E+03  0.7555679E-02  0.1161661E+00
       21   -1    0    0  503  504  0.00000000000E+00  0.00000000000E+00  0.14298237709E+03  0.14298237709E+03  0.00000000000E+00 0. -1.
       21   -1    0    0  501  502  0.00000000000E+00  0.00000000000E+00 -0.13512333096E+04  0.13512333096E+04  0.00000000000E+00 0.  1.
        6    1    1    2  501    0  0.98130869161E+02  0.30938924225E+02 -0.10564053885E+04  0.10750748994E+04  0.17090000000E+03 0.  1.
       -6    1    1    2    0  504 -0.52851217439E+02  0.40889872909E+00 -0.24951507084E+03  0.30701465593E+03  0.17090000000E+03 0.  1.
       21    1    1    2  503  502 -0.45279651722E+02 -0.31347822954E+02  0.97669526812E+02  0.11212613135E+03  0.00000000000E+00 0. -1.
#  0.1931898E+03  0.1931898E+03  0.5507207E+02
</event>
<event>
 5   1  0.1000000E+01  0.1775148E+03  0.7555679E-02  0.1175763E+00
       21   -1    0    0  501  502  0.00000000000E+00  0.00000000000E+00  0.21464707645E+03  0.21464707645E+03  0.00000000000E+00 0. -1.
       21   -1    0    0  503  504  0.00000000000E+00  0.00000000000E+00 -0.18252998900E+03  0.18252998900E+03  0.00000000000E+00 0. -1.
        6    1    1    2  501    0 -0.13944163953E+02  0.42668887235E+02 -0.26364470574E+02  0.17865320863E+03  0.17090000000E+03 0. -1.
       -6    1    1    2    0  504  0.39994919699E+02 -0.39074053850E+02  0.34833339495E+02  0.18315716428E+03  0.17090000000E+03 0. -1.
       21    1    1    2  503  502 -0.26050755746E+02 -0.35948333850E+01  0.23648218523E+02  0.35366692542E+02  0.00000000000E+00 0. -1.
#  0.1775148E+03  0.1775148E+03  0.2629762E+02
</event>
<event>
 6   2  0.1000000E+01  0.2409740E+03  0.7555679E-02  0.1126374E+00
        2   -1    0    0  501    0  0.00000000000E+00  0.00000000000E+00  0.96437058030E+03  0.96437058030E+03  0.00000000000E+00 0.  1.
       21   -1    0    0  503  504  0.00000000000E+00  0.00000000000E+00 -0.19916433851E+03  0.19916433851E+03  0.00000000000E+00 0. -1.
        6    1    1    2  501    0 -0.17549219564E+03  0.75949069642E+02  0.13192573427E+03  0.28840419773E+03  0.17090000000E+03 0.  1.
       -6    1    1    2    0  504  0.71195250388E+02 -0.16095464335E+03  0.30131084973E+02  0.24716361620E+03  0.17090000000E+03 0. -1.
        2    1    1    2  502    0  0.12365855266E+03  0.63640902057E+02  0.55200948932E+03  0.56925923652E+03  0.00000000000E+00 0.  1.
       21    1    1    2  503  502 -0.19361607409E+02  0.21364671649E+02  0.51139933225E+02  0.58707868351E+02  0.00000000000E+00 0.  1.
#  0.2409740E+03  0.2409740E+03  0.1355802E+03  0.2883264E+02
</event>
<event>
 5   1  0.1000000E+01  0.1901221E+03  0.7555679E-02  0.1164303E+00
        1   -1    0    0  503    0  0.00000000000E+00  0.00000000000E+00  0.96688366925E+03  0.96688366925E+03  0.00000000000E+00 0. -1.
       21   -1    0    0  501  502  0.00000000000E+00  0.00000000000E+00 -0.12292738003E+03  0.12292738003E+03  0.00000000000E+00 0.  1.
        6    1    1    2  503    0 -0.10991304824E+03  0.16250176491E+02  0.29793658367E+03  0.36099579540E+03  0.17090000000E+03 0.  1.
       -6    1    1    2    0  502  0.68386420313E+02  0.42822134500E+02  0.11391796230E+02  0.18933309459E+03  0.17090000000E+03 0. -1.
        1    1    1    2  501    0  0.41526627932E+02 -0.59072310991E+02  0.53462790933E+03  0.53948215929E+03  0.00000000000E+00 0. -1.
#  0.1901221E+03  0.1901221E+03  0.7220802E+02
</event>
<event>
 4   0  0.1000000E+01  0.2605551E+03  0.7555679E-02  0.1114408E+00
       21   -1    0    0  502  503  0.00000000000E+00  0.00000000000E+00  0.13731564940E+04  0.13731564940E+04  0.00000000000E+00 0. -1.
       21   -1    0    0  501  502  0.00000000000E+00  0.00000000000E+00 -0.68157486569E+02  0.68157486569E+02  0.00000000000E+00 0.  1.
        6    1    1    2  501    0 -0.16867463839E+02 -0.19595320757E+03  0.27484511225E+03  0.37871997125E+03  0.17090000000E+03 0.  1.
       -6    1    1    2    0  503  0.16867463839E+02  0.19595320757E+03  0.10301538952E+04  0.10625940094E+04  0.17090000000E+03 0. -1.
#  0.2605551E+03  0.2605551E+03
</event>
<event>
 6   2  0.1000000E+01  0.1953341E+03  0.7555679E-02  0.1159846E+00
       21   -1    0    0  501  502  0.00000000000E+00  0.00000000000E+00  0.52697489424E+03  0.52697489424E+03  0.00000000000E+00 0. -1.
        2   -1    0    0  504    0  0.00000000000E+00  0.00000000000E+00 -0.10940821911E+04  0.10940821911E+04  0.00000000000E+00 0.  1.
        6    1    1    2  503    0 -0.45284040382E+02 -0.88539003239E+02 -0.90729721768E+02  0.21755112461E+03  0.17090000000E+03 0. -1.
       -6    1    1    2    0  502  0.71795268730E+02  0.61926523645E+02  0.43604749689E+03  0.47784274033E+03  0.17090000000E+03 0. -1.
        2    1    1    2  501    0 -0.16658943120E+01 -0.60066818382E+02 -0.49343387212E+03  0.49707925327E+03  0.00000000000E+00 0.  1.
       21    1    1    2  504  503 -0.24845334035E+02  0.86679297976E+02 -0.41899119989E+03  0.42858396716E+03  0.00000000000E+00 0. -1.
#  0.1953341E+03  0.1953341E+03  0.6008991E+02  0.5126661E+02
</event>
<event>
 5   1  0.1000000E+01  0.2181216E+03  0.7555679E-02  0.1142013E+00
       21   -1    0    0  501  502  0.00000000000E+00  0.00000000000E+00  0.12242605493E+03  0.12242605493E+03  0.00000000000E+00 0.  1.
       21   -1    0    0  503  504  0.00000000000E+00  0.00000000000E+00 -0.15244851615E+04  0.15244851615E+04  0.00000000000E+00 0. -1.
        6    1    1    2  501    0 -0.38274891868E+02  0.13198372180E+03 -0.10866823558E+02  0.21956677349E+03  0.17090000000E+03 0.  1.
       -6    1    1    2    0  504  0.45295848852E+01 -0.13562890457E+03 -0.13701274468E+04  0.13873974728E+04  0.17090000000E+03 0. -1.
       21    1    1    2  503  502  0.33745306983E+02  0.36451827653E+01 -0.21064836166E+02  0.39946970141E+02  0.00000000000E+00 0. -1.
#  0.2181216E+03  0.2181216E+03  0.3394161E+02
</event>
<event>
 5   1  0.1000000E+01  0.2447468E+03  0.7555679E-02  0.1123974E+00
        2   -1    0    0  501    0  0.00000000000E+00  0.00000000000E+00  0.23020026246E+03  0.23020026246E+03  0.00000000000E+00 0. -1.
       21   -1    0    0  502  503  0.00000000000E+00  0.00000000000E+00 -0.40504502424E+03  0.40504502424E+03  0.00000000000E+00 0.  1.
        6    1    1    2  501    0 -0.60543253408E+02  0.15490508921E+03  0.71064763567E+02  0.24883344393E+03  0.17090000000E+03 0. -1.
       -6    1    1    2    0  503  0.95901090675E+02 -0.15090116697E+03 -0.24865828224E+03  0.35072201629E+03  0.17090000000E+03 0. -1.
        2    1    1    2  502    0 -0.35357837268E+02 -0.40039222404E+01  0.27487568911E+01  0.35689826478E+02  0.00000000000E+00 0. -1.
#  0.2447468E+03  0.2447468E+03  0.3558382E+02
</event>
<event>
 6   2  0.1000000E+01  0.6534784E+03  0.7555679E-02  0.9905572E-01
       21   -1    0    0  503  504  0.00000000000E+00  0.00000000000E+00  0.33679318854E+03  0.33679318854E+03  0.00000000000E+00 0. -1.
        2   -1    0    0  504    0  0.00000000000E+00  0.00000000000E+00 -0.16195102944E+04  0.16195102944E+04  0.00000000000E+00 0.  1.
        6    1    1    2  503    0  0.52536949818E+02  0.11793599130E+03 -0.40261314107E+02  0.21793763455E+03  0.17090000000E+03 0.  1.
       -6    1    1    2    0  502  0.25925131688E+03  0.31053698704E+03 -0.62668670106E+02  0.44359738258E+03  0.17090000000E+03 0. -1.
        2    1    1    2  501    0 -0.26678242760E+03 -0.35401861910E+03 -0.92951266786E+03  0.10298037901E+04  0.00000000000E+00 0.  1.
       21    1    1    2  502  501 -0.45005839095E+02 -0.74454359238E+02 -0.25027445378E+03  0.26496467572E+03  0.00000000000E+00 0. -1.
#  0.6534784E+03  0.6534784E+03  0.5334114E+03  0.2704459E+02
</event>
<event>
 5   1  0.1000000E+01  0.2394001E+03  0.7555679E-02  0.1127390E+00
        1   -1    0    0  503    0  0.00000000000E+00  0.00000000000E+00  0.79604775954E+03  0.79604775954E+03  0.00000000000E+00 0. -1.
       21   -1    0    0  502  503  0.00000000000E+00  0.00000000000E+00 -0.13840496136E+03  0.13840496136E+03  0.00000000000E+00 0. -1.
        6    1    1    2  502    0 -0.18438311452E+03 -0.18772511659E+02  0.46240201950E+02  0.25630939583E+03  0.17090000000E+03 0. -1.
       -6    1    1    2    0  501  0.12351366114E+03  0.11775820520E+02  0.34272942507E+03  0.40257243230E+03  0.17090000000E+03 0. -1.
        1    1    1    2  501    0  0.60869453382E+02  0.69966911390E+01  0.26867317115E+03  0.27557089277E+03  0.00000000000E+00 0. -1.
#  0.2394001E+03  0.2394001E+03  0.6127025E+02
</event>
<event>
 5   1  0.1000000E+01  0.1715390E+03  0.7555679E-02  0.1181568E+00
       21   -1    0    0  503  504  0.00000000000E+00  0.00000000000E+00  0.30294932106E+03  0.30294932106E+03  0.00000000000E+00 0. -1.
       21   -1    0    0  501  502  0.00000000000E+00  0.00000000000E+00 -0.14423801110E+03  0.14423801110E+03  0.00000000000E+00 0. -1.
        6    1    1    2  501    0  0.29568082182E+02 -0.74597588042E+01  0.77519468191E+01  0.17377232854E+03  0.17090000000E+03 0.  1.
       -6    1    1    2    0  504 -0.43606840270E+01 -0.15584313809E+02  0.16346594797E+03  0.23704390426E+03  0.17090000000E+03 0.  1.
       21    1    1    2  503  502 -0.25207398155E+02  0.23044072613E+02 -0.12506584834E+02  0.36371099358E+02  0.00000000000E+00 0. -1.
#  0.1715390E+03  0.1715390E+03  0.3415322E+02
</event>
<event>
 6   2  0.1000000E+01  0.2257256E+03  0.7555679E-02  0.1136586E+00
       21   -1    0    0  504  505  0.00000000000E+00  0.00000000000E+00  0.29965499033E+03  0.29965499033E+03  0.00000000000E+00 0.  1.
       21   -1    0    0  501  502  0.00000000000E+00  0.00000000000E+00 -0.41504384575E+03  0.41504384575E+03  0.00000000000E+00 0. -1.
        6    1    1    2  501    0  0.12652711334E+03  0.13381022992E+03 -0.22658835356E+03  0.33832437099E+03  0.17090000000E+03 0. -1.
       -6    1    1    2    0  505 -0.71211829201E+02 -0.30181764207E+02  0.38512290470E+02  0.19149953009E+03  0.17090000000E+03 0. -1.
       21    1    1    2  504  503 -0.14142667204E+02 -0.32443960441E+02  0.93562434308E+02  0.10003276822E+03  0.00000000000E+00 0.  1.
       21    1    1    2  503  502 -0.41172616933E+02 -0.71184505270E+02 -0.20875226637E+02  0.84842166773E+02  0.00000000000E+00 0. -1.
#  0.2257258E+03  0.2257256E+03  0.3539245E+02  0.8778055E+02
</event>
<event>
 5   1  0.1000000E+01  0.2250501E+03  0.7555679E-02  0.1137058E+00
       21   -1    0    0  503  504  0.00000000000E+00  0.00000000000E+00  0.30045767386E+03  0.30045767386E+03  0.00000000000E+00 0. -1.
       21   -1    0    0  501  502  0.00000000000E+00  0.00000000000E+00 -0.52520211561E+03  0.52520211561E+03  0.00000000000E+00 0. -1.
        6    1    1    2  501    0  0.15184303607E+03 -0.10125743876E+03 -0.90917148730E+02  0.26604908276E+03  0.17090000000E+03 0. -1.
       -6    1    1    2    0  504 -0.92029661087E+02  0.10027000242E+03  0.15293039986E+03  0.26667967509E+03  0.17090000000E+03 0. -1.
       21    1    1    2  503  502 -0.59813374979E+02  0.98743633941E+00 -0.28675769288E+03  0.29293103161E+03  0.00000000000E+00 0. -1.
#  0.2250501E+03  0.2250501E+03  0.5982153E+02
</event>
<event>
 4   0  0.1000000E+01  0.2033501E+03  0.7555679E-02  0.1153282E+00
       21   -1    0    0  501  502  0.00000000000E+00  0.00000000000E+00  0.34223807722E+02  0.34223807722E+02  0.00000000000E+00 0. -1.
       21   -1    0    0  502  503  0.00000000000E+00  0.00000000000E+00 -0.12796017332E+04  0.12796017332E+04  0.00000000000E+00 0.  1.
        6    1    1    2  501    0 -0.10883263442E+03 -0.17318013138E+02 -0.46757838565E+03  0.50988313624E+03  0.17090000000E+03 0. -1.
       -6    1    1    2    0  503  0.10883263442E+03  0.17318013138E+02 -0.77779953987E+03  0.80394240472E+03  0.17090000000E+03 0.  1.
#  0.2033501E+03  0.2033501E+03
</event>
<event>
 6   2  0.1000000E+01  0.2538137E+03  0.7555679E-02  0.1118395E+00
        1   -1    0    0  504    0  0.00000000000E+00  0.00000000000E+00  0.57954736304E+03  0.57954736304E+03  0.00000000000E+00 0.  1.
       21   -1    0    0  502  503  0.00000000000E+00  0.00000000000E+00 -0.48840400641E+03  0.48840400641E+03  0.00000000000E+00 0. -1.
        6    1    1    2  504    0  0.78575009487E+02 -0.17179056273E+02 -0.59505145943E+02  0.19803238241E+03  0.17090000000E+03 0. -1.
       -6    1    1    2    0  503  0.99023501667E+02 -0.51946475376E+02 -0.29941949732E+03  0.36244025102E+03  0.17090000000E+03 0.  1.
        1    1    1    2  501    0 -0.18502891790E+03  0.90877455172E+02  0.43042795620E+03  0.47724484051E+03  0.00000000000E+00 0.  1.
       21    1    1    2  502  501  0.74304067410E+01 -0.21751923523E+02  0.19640043685E+02  0.30233895502E+02  0.00000000000E+00 0.  1.
#  0.1895346E+03  0.2538137E+03  0.1876554E+03  0.2298602E+02
</event>
<event>
 5   1  0.1000000E+01  0.1966253E+03  0.7555679E-02  0.1158766E+00
        1   -1    0    0  503    0  0.00000000000E+00  0.00000000000E+00  0.90561525483E+03  0.90561525483E+03  0.00000000000E+00 0.  1.
       21   -1    0    0  502  503  0.00000000000E+00  0.00000000000E+00 -0.10983898101E+03  0.10983898101E+03  0.00000000000E+00 0.  1.
        6    1    1    2  502    0  0.96897664993E+02 -0.48702851047E+02  0.52042845505E+02  0.20898897806E+03  0.17090000000E+03 0.  1.
       -6    1    1    2    0  501 -0.67269429649E+02  0.28800569990E+02  0.25053159972E+03  0.31197362301E+03  0.17090000000E+03 0.  1.
        1    1    1    2  501    0 -0.29628235344E+02  0.19902281057E+02  0.49320182859E+03  0.49449163476E+03  0.00000000000E+00 0.  1.
#  0.1966253E+03  0.1966253E+03  0.3569220E+02
</event>
<event>
 5   1  0.1000000E+01  0.2715006E+03  0.7555679E-02  0.1108207E+00
       21   -1    0    0  501  502  0.00000000000E+00  0.00000000000E+00  0.15319133738E+03  0.15319133738E+03  0.00000000000E+00 0. -1.
       21   -1    0    0  502  503  0.00000000000E+00  0.00000000000E+00 -0.11883512065E+04  0.11883512065E+04  0.00000000000E+00 0.  1.
        6    1    1    2  501    0  0.10119015538E+03  0.17135929749E+03 -0.73329378236E+02  0.27237375808E+03  0.17090000000E+03 0. -1.
       -6    1    1    2    0  504 -0.15315120535E+03 -0.18704533054E+03 -0.36543823438E+03  0.47031176950E+03  0.17090000000E+03 0.  1.
       21    1    1    2  504  503  0.51961049975E+02  0.15686033052E+02 -0.59639225649E+03  0.59885701628E+03  0.00000000000E+00 0.  1.
#  0.2715006E+03  0.2715006E+03  0.5427709E+02
</event>
<event>
 4   0  0.1000000E+01  0.1723094E+03  0.7555679E-02  0.1180805E+00
       21   -1    0    0  501  502  0.00000000000E+00  0.00000000000E+00  0.11335563460E+03  0.11335563460E+03  0.00000000000E+00 0. -1.
       21   -1    0    0  502  503  0.00000000000E+00  0.00000000000E+00 -0.45977590441E+03  0.45977590441E+03  0.00000000000E+00 0. -1.
        6    1    1    2  501    0  0.20600521562E+02  0.77040527690E+01  0.14774127995E+02  0.17294166293E+03  0.17090000000E+03 0. -1.
       -6    1    1    2    0  503 -0.20600521562E+02 -0.77040527690E+01 -0.36119439780E+03  0.40018987609E+03  0.17090000000E+03 0. -1.
#  0.1723094E+03  0.1723094E+03
</event>
<event>
 5   1  0.1000000E+01  0.1983075E+03  0.7555679E-02  0.1157372E+00
       21   -1    0    0  503  504  0.00000000000E+00  0.00000000000E+00  0.17551506524E+03  0.17551506524E+03  0.00000000000E+00 0. -1.
       21   -1    0    0  501  502  0.00000000000E+00  0.00000000000E+00 -0.37220528731E+03  0.37220528731E+03  0.00000000000E+00 0. -1.
        6    1    1    2  501    0 -0.47992849335E+02 -0.57959515662E+02 -0.61787031059E+02  0.19669028001E+03  0.17090000000E+03 0. -1.
       -6    1    1    2    0  504  0.60619805556E+02  0.10597255099E+03 -0.29522612816E+01  0.21004872824E+03  0.17090000000E+03 0. -1.
       21    1    1    2  503  502 -0.12626956220E+02 -0.48013035329E+02 -0.13195092972E+03  0.14098134430E+03  0.00000000000E+00 0. -1.
#  0.1983075E+03  0.1983075E+03  0.4964566E+02
</event>
<event>
 6   2  0.1000000E+01  0.1713531E+03  0.7555679E-02  0.1181753E+00
        1   -1    0    0  504    0  0.00000000000E+00  0.00000000000E+00  0.40980771596E+03  0.40980771596E+03  0.00000000000E+00 0.  1.
       21   -1    0    0  503  504  0.00000000000E+00  0.00000000000E+00 -0.18826626577E+03  0.18826626577E+03  0.00000000000E+00 0.  1.
        6    1    1    2  503    0 -0.16342396368E+02 -0.40112420214E+02 -0.48621701454E+02  0.18288510061E+03  0.17090000000E+03 0.  1.
       -6    1    1    2    0  502 -0.25669822860E+02 -0.42015221253E+02  0.70515145012E+02  0.19132018790E+03  0.17090000000E+03 0. -1.
        1    1    1    2  501    0 -0.55412369031E+01  0.22894714151E+02  0.31266564782E+02  0.39146791896E+02  0.00000000000E+00 0.  1.
       21    1    1    2  502  501  0.47553456131E+02  0.59232927316E+02  0.16838144185E+03  0.18472190132E+03  0.00000000000E+00 0.  1.
#  0.1713531E+03  0.1713531E+03  0.1012811E+03  0.2328166E+02
</event>
<event>
 5   1  0.1000000E+01  0.1727293E+03  0.7555679E-02  0.1180391E+00
       21   -1    0    0  502  503  0.00000000000E+00  0.00000000000E+00  0.81549926536E+03  0.81549926536E+03  0.00000000000E+00 0.  1.
       21   -1    0    0  503  504  0.00000000000E+00  0.00000000000E+00 -0.23532182630E+03  0.23532182630E+03  0.00000000000E+00 0.  1.
        6    1    1    2  501    0  0.36144563123E+02  0.20241564392E+02 -0.65654864649E+02  0.18770594456E+03  0.17090000000E+03 0.  1.
       -6    1    1    2    0  504  0.10239955497E+02 -0.20892300069E+02 -0.38903635317E+02  0.17680963699E+03  0.17090000000E+03 0. -1.
       21    1    1    2  502  501 -0.46384518619E+02  0.65073567754E+00  0.68473593902E+03  0.68630551011E+03  0.00000000000E+00 0.  1.
#  0.1727293E+03  0.1727293E+03  0.4638908E+02
</event>
<event>
 5   1  0.1000000E+01  0.1927012E+03  0.7555679E-02  0.1162078E+00
       21   -1    0    0  502  503  0.00000000000E+00  0.00000000000E+00  0.96030484826E+02  0.96030484826E+02  0.00000000000E+00 0.  1.
        2   -1    0    0  503    0  0.00000000000E+00  0.00000000000E+00 -0.11833007464E+04  0.11833007464E+04  0.00000000000E+00 0.  1.
        6    1    1    2  502    0 -0.97777295820E+02  0.20909329023E+02 -0.41521980144E+02  0.20230789518E+03  0.17090000000E+03 0.  1.
       -6    1    1    2    0  501  0.37389853556E+02 -0.11334017891E+02 -0.54366757349E+03  0.57123349129E+03  0.17090000000E+03 0.  1.
        2    1    1    2  501    0  0.60387442264E+02 -0.95753111321E+01 -0.50208070792E+03  0.50578984473E+03  0.00000000000E+00 0.  1.
#  0.1927012E+03  0.1927012E+03  0.6114188E+02
</event>
<event>
 5   1  0.1000000E+01  0.6028245E+03  0.7555679E-02  0.1000312E+00
       21   -1    0    0  502  503  0.00000000000E+00  0.00000000000E+00  0.65281669407E+03  0.65281669407E+03  0.00000000000E+00 0. -1.
        2   -1    0    0  503    0  0.00000000000E+00  0.00000000000E+00 -0.12558509851E+04  0.12558509851E+04  0.00000000000E+00 0. -1.
        6    1    1    2  502    0  0.21881614425E+02  0.32458945496E+02  0.23835934282E+03  0.29589588456E+03  0.17090000000E+03 0. -1.
       -6    1    1    2    0  501  0.45000623592E+03 -0.36591352212E+03 -0.15541962288E+02  0.60485261066E+03  0.17090000000E+03 0. -1.
        2    1    1    2  501    0 -0.47188785034E+03  0.33345457662E+03 -0.82585167157E+03  0.10079191840E+04  0.00000000000E+00 0. -1.
#  0.1753260E+03  0.6028245E+03  0.5780921E+03
</event>
<event>
 4   0  0.1000000E+01  0.1819472E+03  0.7555679E-02  0.1171618E+00
       21   -1    0    0  501  502  0.00000000000E+00  0.00000000000E+00  0.27534960040E+03  0.27534960040E+03  0.00000000000E+00 0.  1.
       21   -1    0    0  502  503  0.00000000000E+00  0.00000000000E+00 -0.12692895614E+03  0.12692895614E+03  0.00000000000E+00 0.  1.
        6    1    1    2  501    0 -0.57732825772E+02  0.23767412261E+02  0.12042493868E+03  0.21819015769E+03  0.17090000000E+03 0.  1.
       -6    1    1    2    0  503  0.57732825772E+02 -0.23767412261E+02  0.27995705585E+02  0.18408839884E+03  0.17090000000E+03 0.  1.
#  0.1819472E+03  0.1819472E+03
</event>
<event>
 6   2  0.1000000E+01  0.2182763E+03  0.7555679E-02  0.1141900E+00
       21   -1    0    0  504  505  0.00000000000E+00  0.00000000000E+00  0.16697621268E+04  0.16697621268E+04  0.00000000000E+00 0. -1.
       21   -1    0    0  501  502  0.00000000000E+00  0.00000000000E+00 -0.10563918966E+03  0.10563918966E+03  0.00000000000E+00 0.  1.
        6    1    1    2  501    0 -0.11139030830E+03  0.10434088601E+03  0.15911720664E+03  0.27896221379E+03  0.17090000000E+03 0.  1.
       -6    1    1    2    0  505  0.87027922596E+02 -0.74595519600E+02  0.29400470096E+03  0.35886477264E+03  0.17090000000E+03 0. -1.
       21    1    1    2  504  503  0.34648393394E+02 -0.75563384680E+01  0.11125058046E+04  0.11130708759E+04  0.00000000000E+00 0. -1.
       21    1    1    2  503  502 -0.10286007692E+02 -0.22189027945E+02 -0.15047751041E+01  0.24503454113E+02  0.00000000000E+00 0. -1.
#  0.2182763E+03  0.2182763E+03  0.3544663E+02  0.2445721E+02
</event>
<event>
 5   1  0.1000000E+01  0.2040811E+03  0.7555679E-02  0.1152700E+00
       21   -1    0    0  501  502  0.00000000000E+00  0.00000000000E+00  0.32964660838E+03  0.32964660838E+03  0.00000000000E+00 0.  1.
       21   -1    0    0  502  503  0.00000000000E+00  0.00000000000E+00 -0.25297137601E+03  0.25297137601E+03  0.00000000000E+00 0.  1.
        6    1    1    2  501    0  0.18713892114E+02 -0.10445034128E+03  0.18746946234E+03  0.27497580414E+03  0.17090000000E+03 0.  1.
       -6    1    1    2    0  504 -0.28975138257E+01  0.12718661380E+03 -0.21481248989E+02  0.21413333317E+03  0.17090000000E+03 0.  1.
       21    1    1    2  504  503 -0.15816378288E+02 -0.22736272527E+02 -0.89312980982E+02  0.93508847081E+02  0.00000000000E+00 0.  1.
#  0.2040811E+03  0.2040811E+03  0.2769650E+02
</event>
<event>
 6   2  0.1000000E+01  0.1837450E+03  0.7555679E-02  0.1169973E+00
        1   -1    0    0  501    0  0.00000000000E+00  0.00000000000E+00  0.11460768704E+04  0.11460768704E+04  0.00000000000E+00 0. -1.
       21   -1    0    0  503  504  0.00000000000E+00  0.00000000000E+00 -0.78168025967E+02  0.78168025967E+02  0.00000000000E+00 0.  1.
        6    1    1    2  501    0 -0.62719751424E+02  0.38492702031E+02  0.39513750028E+03  0.43675612126E+03  0.17090000000E+03 0. -1.
       -6    1    1    2    0  504  0.68334060986E+02  0.28393843548E+02  0.10563975558E+03  0.21410820209E+03  0.17090000000E+03 0.  1.
        1    1    1    2  502    0  0.12209509753E+02 -0.46822697720E+02  0.22226116966E+03  0.22746750249E+03  0.00000000000E+00 0. -1.
       21    1    1    2  503  502 -0.17823819314E+02 -0.20063847859E+02  0.34487041890E+03  0.34591307052E+03  0.00000000000E+00 0. -1.
#  0.1837450E+03  0.1837450E+03  0.5294976E+02  0.2683741E+02
</event>
<event>
 5   1  0.1000000E+01  0.3892471E+03  0.7555679E-02  0.1056730E+00
        1   -1    0    0  503    0  0.00000000000E+00  0.00000000000E+00  0.18133581502E+04  0.18133581502E+04  0.00000000000E+00 0.  1.
       21   -1    0    0  501  502  0.00000000000E+00  0.00000000000E+00 -0.31491815128E+03  0.31491815128E+03  0.00000000000E+00 0.  1.
        6    1    1    2  503    0 -0.42201721592E+03  0.33829915887E+02  0.28699447507E+03  0.53927324472E+03  0.17090000000E+03 0.  1.
       -6    1    1    2    0  502  0.84457319714E+02 -0.41472789468E+02 -0.11077945956E+03  0.22434778755E+03  0.17090000000E+03 0.  1.
        1    1    1    2  501    0  0.33755989621E+03  0.76428735809E+01  0.13222249834E+04  0.13646552692E+04  0.00000000000E+00 0.  1.
#  0.3892471E+03  0.1950893E+03  0.3497235E+03
</event>
<event>
 5   1  0.1000000E+01  0.1862068E+03  0.7555679E-02  0.1167755E+00
       21   -1    0    0  501  502  0.00000000000E+00  0.00000000000E+00  0.94283673335E+03  0.94283673335E+03  0.00000000000E+00 0. -1.
        1   -1    0    0  503    0  0.00000000000E+00  0.00000000000E+00 -0.66291005417E+02  0.66291005417E+02  0.00000000000E+00 0. -1.
        6    1    1    2  503    0  0.49719968521E+02  0.41958373573E+02  0.49928838549E+03  0.53172199717E+03  0.17090000000E+03 0. -1.
       -6    1    1    2    0  502 -0.62078359811E+02 -0.59277847585E+02  0.40175941353E+03  0.44495507901E+03  0.17090000000E+03 0. -1.
        1    1    1    2  501    0  0.12358391289E+02  0.17319474011E+02 -0.24502071090E+02  0.32450662597E+02  0.00000000000E+00 0. -1.
#  0.1862068E+03  0.1862068E+03  0.2127661E+02
</event>
<event>
 5   1  0.1000000E+01  0.4377741E+03  0.7555679E-02  0.1040960E+00
       21   -1    0    0  501  502  0.00000000000E+00  0.00000000000E+00  0.19918665071E+04  0.19918665071E+04  0.00000000000E+00 0. -1.
        2   -1    0    0  503    0  0.00000000000E+00  0.00000000000E+00 -0.15198598111E+03  0.15198598111E+03  0.00000000000E+00 0.  1.
        6    1    1    2  503    0  0.15418408609E+03  0.35890714095E+03  0.66717851989E+03  0.79178346511E+03  0.17090000000E+03 0.  1.
       -6    1    1    2    0  502 -0.17835723607E+03 -0.37030715987E+03  0.12194867217E+04  0.12981884958E+04  0.17090000000E+03 0. -1.
        2    1    1    2  501    0  0.24173149984E+02  0.11400018917E+02 -0.46784715567E+02  0.53880527300E+02  0.00000000000E+00 0.  1.
#  0.4377741E+03  0.4377741E+03  0.2672642E+02
</event>
<event>
 5   1  0.1000000E+01  0.1968982E+03  0.7555679E-02  0.1158539E+00
       21   -1    0    0  502  503  0.00000000000E+00  0.00000000000E+00  0.91257869318E+03  0.91257869318E+03  0.00000000000E+00 0.  1.
       21   -1    0    0  503  504  0.00000000000E+00  0.00000000000E+00 -0.26995627877E+03  0.26995627877E+03  0.00000000000E+00 0. -1.
        6    1    1    2  501    0 -0.67220549795E+01 -0.59942082088E+02  0.82962793778E+02  0.19931852493E+03  0.17090000000E+03 0.  1.
       -6    1    1    2    0  504  0.12507698673E+03  0.23067915421E+02 -0.15145052664E+03  0.26138181527E+03  0.17090000000E+03 0. -1.
       21    1    1    2  502  501 -0.11835493175E+03  0.36874166668E+02  0.71111014728E+03  0.72183463176E+03  0.00000000000E+00 0.  1.
#  0.1968982E+03  0.1968982E+03  0.1239661E+03
</event>
<event>
 6   2  0.1000000E+01  0.2052646E+03  0.7555679E-02  0.1151763E+00
        1   -1    0    0  502    0  0.00000000000E+00  0.00000000000E+00  0.11591980201E+03  0.11591980201E+03  0.00000000000E+00 0. -1.
       21   -1    0    0  503  504  0.00000000000E+00  0.00000000000E+00 -0.50595150816E+03  0.50595150816E+03  0.00000000000E+00 0.  1.
        6    1    1    2  501    0  0.12620928836E+03  0.14874951426E+01 -0.19204159710E+03  0.28638746852E+03  0.17090000000E+03 0.  1.
       -6    1    1    2    0  504 -0.10041637710E+03 -0.16648040359E+02 -0.19881807618E+03  0.28124018819E+03  0.17090000000E+03 0.  1.
        1    1    1    2  503    0 -0.19713111828E+02 -0.53557435784E+01 -0.16855713080E+02  0.26484067487E+02  0.00000000000E+00 0. -1.
       21    1    1    2  502  501 -0.60797994328E+01  0.20516288795E+02  0.17683680222E+02  0.27759585971E+02  0.00000000000E+00 0. -1.
#  0.2052646E+03  0.2052646E+03  0.2042770E+02  0.2140409E+02
</event>
<event>
 5   1  0.1000000E+01  0.1727107E+03  0.7555679E-02  0.1180410E+00
        2   -1    0    0  503    0  0.00000000000E+00  0.00000000000E+00  0.24784559355E+03  0.24784559355E+03  0.00000000000E+00 0. -1.
       21   -1    0    0  502  503  0.00000000000E+00  0.00000000000E+00 -0.19494747475E+03  0.19494747475E+03  0.00000000000E+00 0.  1.
        6    1    1    2  502    0 -0.61429449616E+01  0.27716069472E+02 -0.92432864382E+02  0.19635824581E+03  0.17090000000E+03 0.  1.
       -6    1    1    2    0  501  0.20102000564E+02 -0.87271135207E+01  0.11159318924E+03  0.20528054662E+03  0.17090000000E+03 0. -1.
        2    1    1    2  501    0 -0.13959055603E+02 -0.18988955951E+02  0.33737793944E+02  0.41154275861E+02  0.00000000000E+00 0. -1.
#  0.1727107E+03  0.1727107E+03  0.2356768E+02
</event>
<event>
 5   1  0.1000000E+01  0.3007655E+03  0.7555679E-02  0.1093077E+00
       21   -1    0    0  503  504  0.00000000000E+00  0.00000000000E+00  0.98149342360E+03  0.98149342360E+03  0.00000000000E+00 0. -1.
       21   -1    0    0  501  502  0.00000000000E+00  0.00000000000E+00 -0.16743316934E+03  0.16743316934E+03  0.00000000000E+00 0.  1.
        6    1    1    2  501    0 -0.15992832116E+03  0.21686796400E+03  0.56114837232E+03  0.64552543519E+03  0.17090000000E+03 0. -1.
       -6    1    1    2    0  504  0.44203831386E+02 -0.22454055215E+03  0.26130811267E+03  0.38711907472E+03  0.17090000000E+03 0.  1.
       21    1    1    2  503  502  0.11572448978E+03  0.76725881489E+01 -0.83962307305E+01  0.11628208303E+03  0.00000000000E+00 0.  1.
#  0.3007655E+03  0.3007655E+03  0.1159786E+03
</event>
<event>
 5   1  0.1000000E+01  0.2133217E+03  0.7555679E-02  0.1145565E+00
       21   -1    0    0  503  504  0.00000000000E+00  0.00000000000E+00  0.34097377836E+03  0.34097377836E+03  0.00000000000E+00 0.  1.
       21   -1    0    0  501  502  0.00000000000E+00  0.00000000000E+00 -0.20264161506E+03  0.20264161506E+03  0.00000000000E+00 0.  1.
        6    1    1    2  501    0  0.35974331790E+02 -0.94760932488E+02  0.74991497306E+02  0.21237778025E+03  0.17090000000E+03 0.  1.
       -6    1    1    2    0  504 -0.10791308286E+03  0.12386734279E+03  0.83028933026E+02  0.25117516952E+03  0.17090000000E+03 0.  1.
       21    1    1    2  503  502  0.71938751068E+02 -0.29106410306E+02 -0.19688267026E+02  0.80062443659E+02  0.00000000000E+00 0. -1.
#  0.2133217E+03  0.2133217E+03  0.7760391E+02
</event>
<event>
 5   1  0.1000000E+01  0.2503153E+03  0.7555679E-02  0.1120517E+00
        2   -1    0    0  503    0  0.00000000000E+00  0.00000000000E+00  0.15666297942E+04  0.15666297942E+04  0.00000000000E+00 0.  1.
       21   -1    0    0  501  502  0.00000000000E+00  0.00000000000E+00 -0.12386757911E+03  0.12386757911E+03  0.00000000000E+00 0. -1.
        6    1    1    2  503    0 -0.21227972221E+03 -0.40277108287E+02  0.10719481023E+03  0.29560524903E+03  0.17090000000E+03 0. -1.
       -6    1    1    2    0  502  0.11063347941E+03  0.42133759791E+02  0.37345193665E+03  0.42742037793E+03  0.17090000000E+03 0. -1.
        2    1    1    2  501    0  0.10164624280E+03 -0.18566515036E+01  0.96211546820E+03  0.96747174635E+03  0.00000000000E+00 0.  1.
#  0.2503153E+03  0.2503153E+03  0.1016632E+03
</event>
<event>
 5   1  0.1000000E+01  0.2268025E+03  0.7555679E-02  0.1135836E+00
       21   -1    0    0  503  504  0.00000000000E+00  0.00000000000E+00  0.22582043891E+03  0.22582043891E+03  0.00000000000E+00 0.  1.
       21   -1    0    0  501  502  0.00000000000E+00  0.00000000000E+00 -0.26537774136E+03  0.26537774136E+03  0.00000000000E+00 0. -1.
        6    1    1    2  501    0  0.10903411382E+03 -0.45912145961E+02 -0.13205899961E+03  0.24625749227E+03  0.17090000000E+03 0. -1.
       -6    1    1    2    0  504 -0.85795468309E+02  0.53368406735E+02  0.66734447885E+02  0.20945010326E+03  0.17090000000E+03 0.  1.
       21    1    1    2  503  502 -0.23238645511E+02 -0.74562607744E+01  0.25767249278E+02  0.35490584741E+02  0.00000000000E+00 0.  1.
#  0.2078537E+03  0.2268025E+03  0.2136014E+02
</event>
<event>
 5   1  0.1000000E+01  0.2280100E+03  0.7555679E-02  0.1135001E+00
       21   -1    0    0  503  504  0.00000000000E+00  0.00000000000E+00  0.48030803389E+03  0.48030803389E+03  0.00000000000E+00 0. -1.
       21   -1    0    0  502  503  0.00000000000E+00  0.00000000000E+00 -0.17189703050E+03  0.17189703050E+03  0.00000000000E+00 0.  1.
        6    1    1    2  501    0  0.57555764415E+01 -0.14622840099E+03  0.83037258493E+02  0.23982883108E+03  0.17090000000E+03 0.  1.
       -6    1    1    2    0  504  0.16088053976E+02  0.15308021815E+03  0.27453490542E+03  0.35814606373E+03  0.17090000000E+03 0. -1.
       21    1    1    2  502  501 -0.21843630418E+02 -0.68518171578E+01 -0.49161160533E+02  0.54230169584E+02  0.00000000000E+00 0.  1.
#  0.2280100E+03  0.2280100E+03  0.2289305E+02
</event>
<event>
 6   2  0.1000000E+01  0.2949380E+03  0.7555679E-02  0.1095937E+00
       21   -1    0    0  502  503  0.00000000000E+00  0.00000000000E+00  0.56942152754E+02  0.56942152754E+02  0.00000000000E+00 0.  1.
        2   -1    0    0  504    0  0.00000000000E+00  0.00000000000E+00 -0.25384232359E+04  0.25384232359E+04  0.00000000000E+00 0. -1.
        6    1    1    2  502    0 -0.24695925155E+03  0.56814414336E+02 -0.12586501841E+04  0.12952311939E+04  0.17090000000E+03 0. -1.
       -6    1    1    2    0  501  0.21745067297E+03 -0.90863412914E+02 -0.53149550197E+03  0.60599936765E+03  0.17090000000E+03 0.  1.
        2    1    1    2  501    0  0.14034975021E+02  0.17214833118E+02 -0.58250809946E+03  0.58293139986E+03  0.00000000000E+00 0. -1.
       21    1    1    2  504  503  0.15473603567E+02  0.16834165460E+02 -0.10882729762E+03  0.11120342729E+03  0.00000000000E+00 0. -1.
#  0.2949380E+03  0.2949380E+03  0.2221106E+02  0.2411266E+02
</event>
<event>
 5   1  0.1000000E+01  0.1817563E+03  0.7555679E-02  0.1171794E+00
       21   -1    0    0  502  503  0.00000000000E+00  0.00000000000E+00  0.41598772288E+03  0.41598772288E+03  0.00000000000E+00 0. -1.
       21   -1    0    0  503  504  0.00000000000E+00  0.00000000000E+00 -0.26521076515E+03  0.26521076515E+03  0.00000000000E+00 0. -1.
        6    1    1    2  501    0  0.46622662769E+02 -0.34013130388E+02 -0.83018271305E+02  0.19856839903E+03  0.17090000000E+03 0.  1.
       -6    1    1    2    0  504 -0.39584951453E+02  0.56046223850E+02 -0.55554696409E+02  0.19235717268E+03  0.17090000000E+03 0. -1.
       21    1    1    2  502  501 -0.70377113158E+01 -0.22033093462E+02  0.28934992545E+03  0.29027291631E+03  0.00000000000E+00 0. -1.
#  0.1817563E+03  0.1817563E+03  0.2312978E+02
</event>
<event>
 5   1  0.1000000E+01  0.1964342E+03  0.7555679E-02  0.1158925E+00
       21   -1    0    0  501  502  0.00000000000E+00  0.00000000000E+00  0.15188327657E+03  0.15188327657E+03  0.00000000000E+00 0.  1.
       21   -1    0    0  503  504  0.00000000000E+00  0.00000000000E+00 -0.34923997574E+03  0.34923997574E+03  0.00000000000E+00 0. -1.
        6    1    1    2  501    0 -0.90200759626E+02  0.76475265705E+01 -0.25234768219E+02  0.19503401044E+03  0.17090000000E+03 0.  1.
       -6    1    1    2    0  504  0.10629252106E+03  0.12872247523E+02 -0.91688296826E+02  0.22153407992E+03  0.17090000000E+03 0.  1.
       21    1    1    2  503  502 -0.16091761433E+02 -0.20519774093E+02 -0.80433634130E+02  0.84555161961E+02  0.00000000000E+00 0. -1.
#  0.1964342E+03  0.1964342E+03  0.2607692E+02
</event>
<event>
 6   2  0.1000000E+01  0.1749299E+03  0.7555679E-02  0.1178243E+00
       21   -1    0    0  502  503  0.00000000000E+00  0.00000000000E+00  0.23763297635E+03  0.23763297635E+03  0.00000000000E+00 0. -1.
       21   -1    0    0  503  504  0.00000000000E+00  0.00000000000E+00 -0.28365126263E+03  0.28365126263E+03  0.00000000000E+00 0. -1.
        6    1    1    2  501    0 -0.82032825118E+01  0.74086453523E+02 -0.63136319097E+02  0.19684791396E+03  0.17090000000E+03 0. -1.
       -6    1    1    2    0  505 -0.10260008193E+02 -0.10391027160E+01  0.17601097781E+01  0.17121990389E+03  0.17090000000E+03 0. -1.
       21    1    1    2  505  504 -0.51437438054E+02 -0.36228398708E+02 -0.20890821030E+02  0.66292784750E+02  0.00000000000E+00 0.  1.
       21    1    1    2  502  501  0.69900728759E+02 -0.36818952099E+02  0.36248744068E+02  0.86923636378E+02  0.00000000000E+00 0. -1.
#  0.1749299E+03  0.1749299E+03  0.7621306E+02  0.6291508E+02
</event>
<event>
 5   1  0.1000000E+01  0.3431037E+03  0.7555679E-02  0.1074207E+00
       21   -1    0    0  501  502  0.00000000000E+00  0.00000000000E+00  0.72019283595E+03  0.72019283595E+03  0.00000000000E+00 0.  1.
        3   -1    0    0  503    0  0.00000000000E+00  0.00000000000E+00 -0.31491971534E+03  0.31491971534E+03  0.00000000000E+00 0.  1.
        6    1    1    2  503    0 -0.11780782008E+03 -0.22326584694E+03  0.78679412710E+02  0.31483897609E+03  0.17090000000E+03 0. -1.
       -6    1    1    2    0  502 -0.14249790734E+03 -0.11648495656E+02  0.29290739422E+03  0.36802566845E+03  0.17090000000E+03 0.  1.
        3    1    1    2  501    0  0.26030572742E+03  0.23491434260E+03  0.33686313676E+02  0.35224790675E+03  0.00000000000E+00 0.  1.
#  0.3431037E+03  0.2228187E+03  0.2975120E+03
</event>
<event>
 5   1  0.1000000E+01  0.2180982E+03  0.7555679E-02  0.1142030E+00
       21   -1    0    0  501  502  0.00000000000E+00  0.00000000000E+00  0.18477994915E+03  0.18477994915E+03  0.00000000000E+00 0. -1.
       21   -1    0    0  503  504  0.00000000000E+00  0.00000000000E+00 -0.31687644272E+03  0.31687644272E+03  0.00000000000E+00 0.  1.
        6    1    1    2  501    0  0.12049026104E+03  0.13189868946E+02 -0.29279045799E+02  0.21155601663E+03  0.17090000000E+03 0. -1.
       -6    1    1    2    0  504 -0.15236343212E+03 -0.16157329456E+02 -0.61106068588E+02  0.23752144400E+03  0.17090000000E+03 0. -1.
       21    1    1    2  503  502  0.31873171080E+02  0.29674605099E+01 -0.41711379182E+02  0.52578931235E+02  0.00000000000E+00 0.  1.
#  0.2180982E+03  0.2180982E+03  0.3201101E+02
</event>
<event>
 5   1  0.1000000E+01  0.2597509E+03  0.7555679E-02  0.1114877E+00
       21   -1    0    0  503  504  0.00000000000E+00  0.00000000000E+00  0.80750545735E+02  0.80750545735E+02  0.00000000000E+00 0. -1.
       21   -1    0    0  502  503  0.00000000000E+00  0.00000000000E+00 -0.10662498790E+04  0.10662498790E+04  0.00000000000E+00 0. -1.
        6    1    1    2  501    0 -0.18567540273E+03 -0.46080870547E+01 -0.56156636365E+03  0.61567863405E+03  0.17090000000E+03 0. -1.
       -6    1    1    2    0  504  0.20006642507E+03  0.23679102844E+02 -0.27823514847E+03  0.38367809710E+03  0.17090000000E+03 0. -1.
       21    1    1    2  502  501 -0.14391022348E+02 -0.19071015789E+02 -0.14569782116E+03  0.14764369360E+03  0.00000000000E+00 0.  1.
#  0.2597509E+03  0.2597509E+03  0.2389153E+02
</event>
<event>
 4   0  0.1000000E+01  0.1794267E+03  0.7555679E-02  0.1173959E+00
       21   -1    0    0  502  503  0.00000000000E+00  0.00000000000E+00  0.12823622153E+03  0.12823622153E+03  0.00000000000E+00 0. -1.
       21   -1    0    0  501  502  0.00000000000E+00  0.00000000000E+00 -0.31749841807E+03  0.31749841807E+03  0.00000000000E+00 0. -1.
        6    1    1    2  501    0 -0.16741854386E+02 -0.52027198224E+02 -0.19658695553E+03  0.26615852443E+03  0.17090000000E+03 0.  1.
       -6    1    1    2    0  503  0.16741854386E+02  0.52027198224E+02  0.73247589930E+01  0.17957611516E+03  0.17090000000E+03 0.  1.
#  0.1794267E+03  0.1794267E+03
</event>
<event>
 6   2  0.1000000E+01  0.2526483E+03  0.7555679E-02  0.1119098E+00
       21   -1    0    0  501  502  0.00000000000E+00  0.00000000000E+00  0.56531902244E+03  0.56531902244E+03  0.00000000000E+00 0. -1.
       21   -1    0    0  503  504  0.00000000000E+00  0.00000000000E+00 -0.23017150683E+03  0.23017150683E+03  0.00000000000E+00 0. -1.
        6    1    1    2  501    0 -0.79425570352E+01 -0.14044029896E+03  0.26337133115E+03  0.34403172798E+03  0.17090000000E+03 0. -1.
       -6    1    1    2    0  505  0.56323925418E+01  0.11442544307E+02  0.10710522912E+03  0.20209155294E+03  0.17090000000E+03 0. -1.
       21    1    1    2  505  504 -0.13856903303E+02  0.72974355937E+02 -0.12322978708E+03  0.14388485264E+03  0.00000000000E+00 0. -1.
       21    1    1    2  503  502  0.16167067797E+02  0.56023398717E+02  0.87900742433E+02  0.10548239571E+03  0.00000000000E+00 0. -1.
#  0.2036921E+03  0.2526483E+03  0.3978698E+02  0.7427833E+02
</event>
<event>
 5   1  0.1000000E+01  0.2243417E+03  0.7555679E-02  0.1137556E+00
       21   -1    0    0  501  502  0.00000000000E+00  0.00000000000E+00  0.22530513931E+03  0.22530513931E+03  0.00000000000E+00 0. -1.
       21   -1    0    0  503  504  0.00000000000E+00  0.00000000000E+00 -0.40291297108E+03  0.40291297108E+03  0.00000000000E+00 0.  1.
        6    1    1    2  501    0 -0.16426071017E+03  0.27100432889E+02 -0.19007927814E+03  0.30504582664E+03  0.17090000000E+03 0.  1.
       -6    1    1    2    0  504  0.10632514825E+03 -0.59317302603E+02 -0.66449621925E+02  0.22010438840E+03  0.17090000000E+03 0.  1.
       21    1    1    2  503  502  0.57935561928E+02  0.32216869715E+02  0.78921068301E+02  0.10306789535E+03  0.00000000000E+00 0. -1.
#  0.2243417E+03  0.2243417E+03  0.6629069E+02
</event>
<event>
 5   1  0.1000000E+01  0.2655874E+03  0.7555679E-02  0.1111517E+00
        2   -1    0    0  503    0  0.00000000000E+00  0.00000000000E+00  0.86709600780E+03  0.86709600780E+03  0.00000000000E+00 0.  1.
       21   -1    0    0  501  502  0.00000000000E+00  0.00000000000E+00 -0.24432897136E+03  0.24432897136E+03  0.00000000000E+00 0. -1.
        6    1    1    2  503    0 -0.27240818842E+03  0.78125859019E+02  0.15774001004E+02  0.33130876848E+03  0.17090000000E+03 0. -1.
       -6    1    1    2    0  502  0.13199706130E+03 -0.15493011093E+02  0.79429406534E+02  0.23060593706E+03  0.17090000000E+03 0.  1.
        2    1    1    2  501    0  0.14041112712E+03 -0.62632847925E+02  0.52756362891E+03  0.54951027361E+03  0.00000000000E+00 0.  1.
#  0.2655874E+03  0.2655874E+03  0.1537471E+03
</event>
<event>
 5   1  0.1000000E+01  0.2582264E+03  0.7555679E-02  0.1115770E+00
       21   -1    0    0  503  504  0.00000000000E+00  0.00000000000E+00  0.10335759294E+03  0.10335759294E+03  0.00000000000E+00 0.  1.
       21   -1    0    0  502  503  0.00000000000E+00  0.00000000000E+00 -0.15046563605E+04  0.15046563605E+04  0.00000000000E+00 0.  1.
        6    1    1    2  501    0  0.54089954338E+02  0.17047294044E+03 -0.38092329158E+03  0.45419831643E+03  0.17090000000E+03 0.  1.
       -6    1    1    2    0  504  0.85759345471E+00 -0.20693224818E+03 -0.21003879064E+03  0.34080022649E+03  0.17090000000E+03 0.  1.
       21    1    1    2  502  501 -0.54947547793E+02  0.36459307744E+02 -0.81033668534E+03  0.81301541052E+03  0.00000000000E+00 0.  1.
#  0.2582264E+03  0.2582264E+03  0.6594326E+02
</event>
<event>
 5   1  0.1000000E+01  0.1736108E+03  0.7555679E-02  0.1179527E+00
       21   -1    0    0  503  504  0.00000000000E+00  0.00000000000E+00  0.32412811144E+03  0.32412811144E+03  0.00000000000E+00 0.  1.
       21   -1    0    0  501  502  0.00000000000E+00  0.00000000000E+00 -0.12089457367E+03  0.12089457367E+03  0.00000000000E+00 0.  1.
        6    1    1    2  501    0  0.83566702789E+01 -0.17294278652E+02  0.21883592434E+02  0.17336270542E+03  0.17090000000E+03 0.  1.
       -6    1    1    2    0  504  0.70023663143E+00  0.36679547003E+02  0.17891289990E+03  0.25012499925E+03  0.17090000000E+03 0.  1.
       21    1    1    2  503  502 -0.90569069103E+01 -0.19385268351E+02  0.24370454369E+01  0.21534980434E+02  0.00000000000E+00 0.  1.
#  0.1736108E+03  0.1736108E+03  0.2139664E+02
</event>
<event>
 5   1  0.1000000E+01  0.3468262E+03  0.7555679E-02  0.1072690E+00
       21   -1    0    0  501  502  0.00000000000E+00  0.00000000000E+00  0.76797158012E+03  0.76797158012E+03  0.00000000000E+00 0. -1.
        2   -1    0    0  503    0  0.00000000000E+00  0.00000000000E+00 -0.28082611450E+03  0.28082611450E+03  0.00000000000E+00 0.  1.
        6    1    1    2  503    0 -0.25720240089E+03  0.12817862290E+03  0.47352108580E+03  0.57966530265E+03  0.17090000000E+03 0. -1.
       -6    1    1    2    0  502  0.32893478864E+03 -0.13709155167E+03 -0.17847771864E+01  0.39522422009E+03  0.17090000000E+03 0.  1.
        2    1    1    2  501    0 -0.71732387750E+02  0.89129287661E+01  0.15409156995E+02  0.73908171881E+02  0.00000000000E+00 0.  1.
#  0.3468262E+03  0.3468262E+03  0.7228399E+02
</event>
<event>
 5   1  0.1000000E+01  0.2892975E+03  0.7555679E-02  0.1098774E+00
       21   -1    0    0  503  504  0.00000000000E+00  0.00000000000E+00  0.40291648597E+03  0.40291648597E+03  0.00000000000E+00 0.  1.
       21   -1    0    0  501  502  0.00000000000E+00  0.00000000000E+00 -0.47244068505E+03  0.47244068505E+03  0.00000000000E+00 0. -1.
        6    1    1    2  501    0 -0.14339919624E+03 -0.21942356484E+03  0.90024225790E+02  0.32560897027E+03  0.17090000000E+03 0.  1.
       -6    1    1    2    0  504  0.16274089994E+03  0.13846074380E+03  0.88927894920E+02  0.28769942403E+03  0.17090000000E+03 0. -1.
       21    1    1    2  503  502 -0.19341703706E+02  0.80962821035E+02 -0.24847631979E+03  0.26204877673E+03  0.00000000000E+00 0. -1.
#  0.2892975E+03  0.2892975E+03  0.8324109E+02
</event>
<event>
 5   1  0.1000000E+01  0.1825707E+03  0.7555679E-02  0.1171045E+00
       21   -1    0    0  501  502  0.00000000000E+00  0.00000000000E+00  0.88442783416E+02  0.88442783416E+02  0.00000000000E+00 0. -1.
       21   -1    0    0  503  504  0.00000000000E+00  0.00000000000E+00 -0.57134201316E+03  0.57134201316E+03  0.00000000000E+00 0. -1.
        6    1    1    2  501    0  0.23875283655E+02  0.58173552401E+02 -0.67480257564E+02  0.19420243698E+03  0.17090000000E+03 0. -1.
       -6    1    1    2    0  504 -0.48569789850E+01 -0.70400358452E+02 -0.34226415742E+03  0.38901332133E+03  0.17090000000E+03 0. -1.
       21    1    1    2  503  502 -0.19018304670E+02  0.12226806051E+02 -0.73154814755E+02  0.76569038263E+02  0.00000000000E+00 0. -1.
#  0.1825707E+03  0.1825707E+03  0.2260953E+02
</event>
<event>
 5   1  0.1000000E+01  0.1825060E+03  0.7555679E-02  0.1171105E+00
       21   -1    0    0  503  504  0.00000000000E+00  0.00000000000E+00  0.58144161712E+02  0.58144161712E+02  0.00000000000E+00 0.  1.
       21   -1    0    0  501  502  0.00000000000E+00  0.00000000000E+00 -0.86595216095E+03  0.86595216095E+03  0.00000000000E+00 0.  1.
        6    1    1    2  501    0 -0.52801666820E+02  0.34527098566E+02 -0.28433134694E+03  0.33768515130E+03  0.17090000000E+03 0.  1.
       -6    1    1    2    0  504  0.64377930794E+02 -0.16582752856E+02 -0.23953466646E+03  0.30166732024E+03  0.17090000000E+03 0.  1.
       21    1    1    2  503  502 -0.11576263975E+02 -0.17944345710E+02 -0.28394198584E+03  0.28474385112E+03  0.00000000000E+00 0.  1.
#  0.1825060E+03  0.1825060E+03  0.2135438E+02
</event>
<event>
 5   1  0.1000000E+01  0.2183017E+03  0.7555679E-02  0.1141881E+00
       21   -1    0    0  501  502  0.00000000000E+00  0.00000000000E+00  0.70797623893E+03  0.70797623893E+03  0.00000000000E+00 0.  1.
       21   -1    0    0  502  503  0.00000000000E+00  0.00000000000E+00 -0.32494084943E+03  0.32494084943E+03  0.00000000000E+00 0.  1.
        6    1    1    2  501    0  0.65209565358E+02 -0.11029015086E+03  0.13798349439E+03  0.25428814270E+03  0.17090000000E+03 0.  1.
       -6    1    1    2    0  504 -0.55364982741E+02  0.12779252838E+03  0.48766700818E+03  0.53518420426E+03  0.17090000000E+03 0.  1.
       21    1    1    2  504  503 -0.98445826173E+01 -0.17502377524E+02 -0.24261511308E+03  0.24344474141E+03  0.00000000000E+00 0.  1.
#  0.2183017E+03  0.2183017E+03  0.2008106E+02
</event>
<event>
 5   1  0.1000000E+01  0.1767619E+03  0.7555679E-02  0.1176481E+00
       21   -1    0    0  501  502  0.00000000000E+00  0.00000000000E+00  0.30508363658E+03  0.30508363658E+03  0.00000000000E+00 0. -1.
       21   -1    0    0  503  504  0.00000000000E+00  0.00000000000E+00 -0.21537005187E+03  0.21537005187E+03  0.00000000000E+00 0. -1.
        6    1    1    2  501    0 -0.45896803757E+02 -0.19153437255E+02  0.19577279616E+03  0.26458867790E+03  0.17090000000E+03 0. -1.
       -6    1    1    2    0  504  0.37271089197E+02 -0.15880313503E+02 -0.39299476108E+02  0.17997938012E+03  0.17090000000E+03 0. -1.
       21    1    1    2  503  502  0.86257145595E+01  0.35033750759E+02 -0.66759735342E+02  0.75885630437E+02  0.00000000000E+00 0. -1.
#  0.1767619E+03  0.1767619E+03  0.3608000E+02
</event>
<event>
 5   1  0.1000000E+01  0.1885199E+03  0.7555679E-02  0.1165704E+00
       21   -1    0    0  502  503  0.00000000000E+00  0.00000000000E+00  0.11550677318E+03  0.11550677318E+03  0.00000000000E+00 0.  1.
        2   -1    0    0  503    0  0.00000000000E+00  0.00000000000E+00 -0.30476483396E+04  0.30476483396E+04  0.00000000000E+00 0.  1.
        6    1    1    2  502    0 -0.67479441547E+01 -0.71900610972E+02  0.12658321813E+02  0.18596310311E+03  0.17090000000E+03 0.  1.
       -6    1    1    2    0  501  0.75906554085E+01  0.15112101657E+03 -0.82733141567E+03  0.85824195950E+03  0.17090000000E+03 0.  1.
        2    1    1    2  501    0 -0.84271125379E+00 -0.79220405595E+02 -0.21174684726E+04  0.21189500502E+04  0.00000000000E+00 0.  1.
#  0.1885199E+03  0.1885199E+03  0.7922489E+02
</event>
<event>
 4   0  0.1000000E+01  0.1790089E+03  0.7555679E-02  0.1174351E+00
       21   -1    0    0  502  503  0.00000000000E+00  0.00000000000E+00  0.11111825778E+03  0.11111825778E+03  0.00000000000E+00 0. -1.
       21   -1    0    0  501  502  0.00000000000E+00  0.00000000000E+00 -0.29387461582E+03  0.29387461582E+03  0.00000000000E+00 0. -1.
        6    1    1    2  501    0 -0.49912699057E+02  0.18603393929E+02 -0.63686842659E+02  0.19000049400E+03  0.17090000000E+03 0. -1.
       -6    1    1    2    0  503  0.49912699057E+02 -0.18603393929E+02 -0.11906951538E+03  0.21499237960E+03  0.17090000000E+03 0. -1.
#  0.1790089E+03  0.1790089E+03
</event>
<event>
 5   1  0.1000000E+01  0.2268948E+03  0.7555679E-02  0.1135772E+00
       21   -1    0    0  501  502  0.00000000000E+00  0.00000000000E+00  0.41272861929E+03  0.41272861929E+03  0.00000000000E+00 0. -1.
       21   -1    0    0  503  504  0.00000000000E+00  0.00000000000E+00 -0.52075053413E+03  0.52075053413E+03  0.00000000000E+00 0. -1.
        6    1    1    2  501    0 -0.11812163340E+03  0.89032918316E+02  0.33735268758E+03  0.40607047004E+03  0.17090000000E+03 0. -1.
       -6    1    1    2    0  504  0.11507813634E+03 -0.12399898308E+03 -0.42045571545E+03  0.48436406134E+03  0.17090000000E+03 0. -1.
       21    1    1    2  503  502  0.30434970604E+01  0.34966064763E+02 -0.24918886962E+02  0.43044622043E+02  0.00000000000E+00 0. -1.
#  0.2268948E+03  0.2268948E+03  0.3509827E+02
</event>
<event>
 6   2  0.1000000E+01  0.2402092E+03  0.7555679E-02  0.1126867E+00
        2   -1    0    0  504    0  0.00000000000E+00  0.00000000000E+00  0.25546200020E+04  0.25546200020E+04  0.00000000000E+00 0.  1.
       21   -1    0    0  502  503  0.00000000000E+00  0.00000000000E+00 -0.13438359019E+03  0.13438359019E+03  0.00000000000E+00 0. -1.
        6    1    1    2  502    0  0.18326774835E+03  0.55828879795E+02  0.37262872947E+02  0.25942101516E+03  0.17090000000E+03 0. -1.
       -6    1    1    2    0  501 -0.82221822319E+02 -0.62846150367E+02  0.43997627086E+03  0.48321423365E+03  0.17090000000E+03 0. -1.
        2    1    1    2  501    0 -0.73363371483E+02 -0.46214801664E+01  0.16895312417E+04  0.16911296103E+04  0.00000000000E+00 0.  1.
       21    1    1    2  504  503 -0.27682554547E+02  0.11638750738E+02  0.25346602637E+03  0.25523873309E+03  0.00000000000E+00 0. -1.
#  0.2402092E+03  0.2402092E+03  0.9378806E+02  0.3002972E+02
</event>
<event>
 5   1  0.1000000E+01  0.2057479E+03  0.7555679E-02  0.1151383E+00
       21   -1    0    0  503  504  0.00000000000E+00  0.00000000000E+00  0.46617677869E+03  0.46617677869E+03  0.00000000000E+00 0. -1.
       21   -1    0    0  502  503  0.00000000000E+00  0.00000000000E+00 -0.18926725113E+03  0.18926725113E+03  0.00000000000E+00 0. -1.
        6    1    1    2  501    0  0.67093965150E+02  0.58586992997E+02  0.52555984338E+02  0.19975729623E+03  0.17090000000E+03 0. -1.
       -6    1    1    2    0  504 -0.11759963871E+03 -0.50489860031E+02  0.29764958285E+03  0.36630722783E+03  0.17090000000E+03 0. -1.
       21    1    1    2  502  501  0.50505673555E+02 -0.80971329663E+01 -0.73296039631E+02  0.89379505756E+02  0.00000000000E+00 0. -1.
#  0.2057479E+03  0.2057479E+03  0.5115063E+02
</event>
<event>
 4   0  0.1000000E+01  0.1869859E+03  0.7555679E-02  0.1167060E+00
       21   -1    0    0  502  503  0.00000000000E+00  0.00000000000E+00  0.20203657174E+03  0.20203657174E+03  0.00000000000E+00 0.  1.
       21   -1    0    0  501  502  0.00000000000E+00  0.00000000000E+00 -0.17306319127E+03  0.17306319127E+03  0.00000000000E+00 0.  1.
        6    1    1    2  501    0  0.14171514523E+02 -0.74539158394E+02  0.13314470763E+02  0.18745933716E+03  0.17090000000E+03 0.  1.
       -6    1    1    2    0  503 -0.14171514523E+02  0.74539158394E+02  0.15658909714E+02  0.18764042585E+03  0.17090000000E+03 0.  1.
#  0.1869859E+03  0.1869859E+03
</event>
<event>
 6   2  0.1000000E+01  0.2404560E+03  0.7555679E-02  0.1126707E+00
       21   -1    0    0  503  504  0.00000000000E+00  0.00000000000E+00  0.27925797311E+03  0.27925797311E+03  0.00000000000E+00 0. -1.
        2   -1    0    0  504    0  0.00000000000E+00  0.00000000000E+00 -0.99554936908E+03  0.99554936908E+03  0.00000000000E+00 0. -1.
        6    1    1    2  503    0 -0.16489447806E+02 -0.10931069023E+02  0.18883497118E+03  0.25545419648E+03  0.17090000000E+03 0. -1.
       -6    1    1    2    0  502 -0.13009382939E+03 -0.81582100216E+02 -0.24802872149E+03  0.33809037284E+03  0.17090000000E+03 0. -1.
        2    1    1    2  501    0  0.10417487779E+03  0.85519787403E+02 -0.53869456573E+03  0.55529980582E+03  0.00000000000E+00 0. -1.
       21    1    1    2  502  501  0.42408399406E+02  0.69933818359E+01 -0.11840307994E+03  0.12596296705E+03  0.00000000000E+00 0.  1.
#  0.1720413E+03  0.2404560E+03  0.1758084E+03  0.2706069E+02
</event>
<event>
 6   2  0.1000000E+01  0.3601593E+03  0.7555679E-02  0.1067420E+00
        2   -1    0    0  501    0  0.00000000000E+00  0.00000000000E+00  0.23841015666E+04  0.23841015666E+04  0.00000000000E+00 0. -1.
       21   -1    0    0  503  504  0.00000000000E+00  0.00000000000E+00 -0.40674644276E+03  0.40674644276E+03  0.00000000000E+00 0.  1.
        6    1    1    2  501    0 -0.19860997134E+03 -0.28990927511E+03  0.43667353299E+03  0.58598966964E+03  0.17090000000E+03 0. -1.
       -6    1    1    2    0  504 -0.66530002185E+02  0.32189800623E+03 -0.21333163713E+03  0.42750645025E+03  0.17090000000E+03 0.  1.
        2    1    1    2  502    0  0.24251503596E+03 -0.60920439968E+02  0.15554657378E+04  0.15754359727E+04  0.00000000000E+00 0. -1.
       21    1    1    2  503  502  0.22624937565E+02  0.28931708850E+02  0.19854749017E+03  0.20191591673E+03  0.00000000000E+00 0. -1.
#  0.3601593E+03  0.3601593E+03  0.2618347E+03  0.3672780E+02
</event>
<event>
 6   2  0.1000000E+01  0.3052089E+03  0.7555679E-02  0.1090943E+00
       21   -1    0    0  504  505  0.00000000000E+00  0.00000000000E+00  0.43736852793E+03  0.43736852793E+03  0.00000000000E+00 0. -1.
       21   -1    0    0  501  502  0.00000000000E+00  0.00000000000E+00 -0.68113601673E+03  0.68113601673E+03  0.00000000000E+00 0. -1.
        6    1    1    2  501    0 -0.86613417861E+02 -0.29531482273E+03 -0.12858759855E+03  0.37477234314E+03  0.17090000000E+03 0. -1.
       -6    1    1    2    0  505  0.12184917528E+03  0.19009890375E+03  0.12105386442E+03  0.30797023041E+03  0.17090000000E+03 0. -1.
       21    1    1    2  503  502 -0.18874958454E+02  0.79285501645E+02 -0.32853932752E+03  0.33849748087E+03  0.00000000000E+00 0. -1.
       21    1    1    2  504  503 -0.16360798966E+02  0.25930417336E+02  0.92305572845E+02  0.97264490254E+02  0.00000000000E+00 0. -1.
#  0.3052089E+03  0.3052089E+03  0.3066044E+02  0.8192308E+02
</event>
<event>
 6   2  0.1000000E+01  0.2805361E+03  0.7555679E-02  0.1103323E+00
       21   -1    0    0  503  504  0.00000000000E+00  0.00000000000E+00  0.69053694893E+03  0.69053694893E+03  0.00000000000E+00 0.  1.
       21   -1    0    0  502  503  0.00000000000E+00  0.00000000000E+00 -0.41495261816E+03  0.41495261816E+03  0.00000000000E+00 0.  1.
        6    1    1    2  501    0 -0.34812370551E+02 -0.15224553790E+03 -0.22332031234E+03  0.32166656161E+03  0.17090000000E+03 0.  1.
       -6    1    1    2    0  505  0.25752314754E+02  0.17849825139E+03  0.59628315403E+03  0.64597617390E+03  0.17090000000E+03 0.  1.
       21    1    1    2  502  501 -0.14954742304E+02 -0.29822816546E+02 -0.10673502975E+03  0.11182759624E+03  0.00000000000E+00 0.  1.
       21    1    1    2  505  504  0.24014798102E+02  0.35701030494E+01  0.93565188197E+01  0.26019235348E+02  0.00000000000E+00 0.  1.
#  0.2805361E+03  0.2540714E+03  0.2427872E+02  0.2473364E+02
</event>
<event>
 4   0  0.1000000E+01  0.2077005E+03  0.7555679E-02  0.1149857E+00
       21   -1    0    0  502  503  0.00000000000E+00  0.00000000000E+00  0.32945735951E+03  0.32945735951E+03  0.00000000000E+00 0. -1.
       21   -1    0    0  501  502  0.00000000000E+00  0.00000000000E+00 -0.13397008283E+03  0.13397008283E+03  0.00000000000E+00 0.  1.
        6    1    1    2  501    0 -0.87103013414E+02 -0.79660296358E+02  0.13258511286E+03  0.24641087621E+03  0.17090000000E+03 0.  1.
       -6    1    1    2    0  503  0.87103013414E+02  0.79660296358E+02  0.62902163829E+02  0.21701656613E+03  0.17090000000E+03 0.  1.
#  0.2077005E+03  0.2077005E+03
</event>
<event>
 4   0  0.1000000E+01  0.1887767E+03  0.7555679E-02  0.1165478E+00
       21   -1    0    0  501  502  0.00000000000E+00  0.00000000000E+00  0.97432296377E+02  0.97432296377E+02  0.00000000000E+00 0.  1.
       21   -1    0    0  502  503  0.00000000000E+00  0.00000000000E+00 -0.66077001723E+03  0.66077001723E+03  0.00000000000E+00 0.  1.
        6    1    1    2  501    0  0.79761481312E+02 -0.82425013249E+01 -0.28360343354E+02  0.19089513300E+03  0.17090000000E+03 0.  1.
       -6    1    1    2    0  503 -0.79761481312E+02  0.82425013249E+01 -0.53497737750E+03  0.56730718061E+03  0.17090000000E+03 0.  1.
#  0.1887767E+03  0.1887767E+03
</event>
<event>
 5   1  0.1000000E+01  0.3149566E+03  0.7555679E-02  0.1086396E+00
       21   -1    0    0  503  504  0.00000000000E+00  0.00000000000E+00  0.11018779901E+04  0.11018779901E+04  0.00000000000E+00 0.  1.
       21   -1    0    0  501  502  0.00000000000E+00  0.00000000000E+00 -0.12039620066E+03  0.12039620066E+03  0.00000000000E+00 0. -1.
        6    1    1    2  501    0 -0.80102620244E+02 -0.22813099838E+03  0.33055770261E+03  0.44377402689E+03  0.17090000000E+03 0. -1.
       -6    1    1    2    0  504  0.12205562982E+03  0.25306559314E+03  0.65138874805E+03  0.72969437595E+03  0.17090000000E+03 0.  1.
       21    1    1    2  503  502 -0.41953009576E+02 -0.24934594756E+02 -0.46466117524E+00  0.48805787958E+02  0.00000000000E+00 0. -1.
#  0.3149566E+03  0.3149566E+03  0.4880358E+02
</event>
<event>
 5   1  0.1000000E+01  0.1737412E+03  0.7555679E-02  0.1179399E+00
        1   -1    0    0  503    0  0.00000000000E+00  0.00000000000E+00  0.34778531894E+03  0.34778531894E+03  0.00000000000E+00 0. -1.
       21   -1    0    0  502  503  0.00000000000E+00  0.00000000000E+00 -0.45170673974E+03  0.45170673974E+03  0.00000000000E+00 0. -1.
        6    1    1    2  502    0 -0.15012233790E+02  0.23060137813E+02 -0.35584089018E+03  0.39571035650E+03  0.17090000000E+03 0. -1.
       -6    1    1    2    0  501  0.35686249839E+02 -0.37824450911E+02  0.30878553815E+02  0.18128566573E+03  0.17090000000E+03 0. -1.
        1    1    1    2  501    0 -0.20674016049E+02  0.14764313098E+02  0.22104091557E+03  0.22249603645E+03  0.00000000000E+00 0. -1.
#  0.1737412E+03  0.1737412E+03  0.2540472E+02
</event>
<event>
 5   1  0.1000000E+01  0.2370658E+03  0.7555679E-02  0.1128911E+00
       21   -1    0    0  502  503  0.00000000000E+00  0.00000000000E+00  0.18945356516E+03  0.18945356516E+03  0.00000000000E+00 0. -1.
        2   -1    0    0  503    0  0.00000000000E+00  0.00000000000E+00 -0.85149549950E+03  0.85149549950E+03  0.00000000000E+00 0. -1.
        6    1    1    2  502    0 -0.96719035189E+02 -0.13674817740E+03  0.81358701945E+02  0.25274628419E+03  0.17090000000E+03 0. -1.
       -6    1    1    2    0  501  0.63170753406E+02  0.12864598490E+03 -0.58478759468E+03  0.62587832237E+03  0.17090000000E+03 0. -1.
        2    1    1    2  501    0  0.33548281784E+02  0.81021924995E+01 -0.15861304161E+03  0.16232445811E+03  0.00000000000E+00 0. -1.
#  0.2370658E+03  0.2370658E+03  0.3451279E+02
</event>
<event>
 5   1  0.1000000E+01  0.1925799E+03  0.7555679E-02  0.1162182E+00
       21   -1    0    0  501  502  0.00000000000E+00  0.00000000000E+00  0.16205156254E+03  0.16205156254E+03  0.00000000000E+00 0.  1.
        2   -1    0    0  503    0  0.00000000000E+00  0.00000000000E+00 -0.89399956130E+03  0.89399956130E+03  0.00000000000E+00 0.  1.
        6    1    1    2  503    0  0.10939840774E+03 -0.17156972491E+02 -0.55030286307E+02  0.21094434274E+03  0.17090000000E+03 0. -1.
       -6    1    1    2    0  502 -0.70944719089E+02 -0.33504806499E+02 -0.24548967643E+02  0.18964489721E+03  0.17090000000E+03 0.  1.
        2    1    1    2  501    0 -0.38453688656E+02  0.50661778990E+02 -0.65236874481E+03  0.65546188389E+03  0.00000000000E+00 0.  1.
#  0.1925799E+03  0.1925799E+03  0.6360269E+02
</event>
<event>
 4   0  0.1000000E+01  0.2081823E+03  0.7555679E-02  0.1149483E+00
       21   -1    0    0  501  502  0.00000000000E+00  0.00000000000E+00  0.32146539200E+03  0.32146539200E+03  0.00000000000E+00 0. -1.
       21   -1    0    0  502  503  0.00000000000E+00  0.00000000000E+00 -0.59933593703E+03  0.59933593703E+03  0.00000000000E+00 0. -1.
        6    1    1    2  501    0 -0.11437613590E+03  0.32421475283E+02  0.26638771893E+03  0.33808620102E+03  0.17090000000E+03 0. -1.
       -6    1    1    2    0  503  0.11437613590E+03 -0.32421475283E+02 -0.54425826396E+03  0.58271512801E+03  0.17090000000E+03 0. -1.
#  0.2081823E+03  0.2081823E+03
</event>
<event>
 4   0  0.1000000E+01  0.2156604E+03  0.7555679E-02  0.1143821E+00
       21   -1    0    0  502  503  0.00000000000E+00  0.00000000000E+00  0.30149238833E+03  0.30149238833E+03  0.00000000000E+00 0.  1.
       21   -1    0    0  501  502  0.00000000000E+00  0.00000000000E+00 -0.15459092273E+03  0.15459092273E+03  0.00000000000E+00 0. -1.
        6    1    1    2  501    0 -0.10382505962E+03  0.80764877073E+02  0.62963708269E+02  0.22466385320E+03  0.17090000000E+03 0. -1.
       -6    1    1    2    0  503  0.10382505962E+03 -0.80764877073E+02  0.83937757331E+02  0.23141945787E+03  0.17090000000E+03 0.  1.
#  0.2156604E+03  0.2156604E+03
</event>
<event>
 5   1  0.1000000E+01  0.2102368E+03  0.7555679E-02  0.1147902E+00
       21   -1    0    0  501  502  0.00000000000E+00  0.00000000000E+00  0.11850195494E+04  0.11850195494E+04  0.00000000000E+00 0. -1.
       21   -1    0    0  503  504  0.00000000000E+00  0.00000000000E+00 -0.22463636027E+03  0.22463636027E+03  0.00000000000E+00 0. -1.
        6    1    1    2  501    0  0.11979655512E+03 -0.30859281125E+02  0.97445704761E+03  0.99703403026E+03  0.17090000000E+03 0. -1.
       -6    1    1    2    0  504 -0.57105982529E+02  0.17731114065E+03 -0.16003276301E+02  0.25330465588E+03  0.17090000000E+03 0. -1.
       21    1    1    2  503  502 -0.62690572596E+02 -0.14645185953E+03  0.19294177938E+01  0.15931722350E+03  0.00000000000E+00 0. -1.
#  0.2102368E+03  0.2102368E+03  0.1593055E+03
</event>
<event>
 6   2  0.1000000E+01  0.1954511E+03  0.7555679E-02  0.1159748E+00
       21   -1    0    0  501  502  0.00000000000E+00  0.00000000000E+00  0.20279967832E+03  0.20279967832E+03  0.00000000000E+00 0.  1.
       21   -1    0    0  503  504  0.00000000000E+00  0.00000000000E+00 -0.10206782416E+04  0.10206782416E+04  0.00000000000E+00 0.  1.
        6    1    1    2  501    0  0.11418463040E+03  0.26956744245E+02  0.75542590304E+02  0.22063156807E+03  0.17090000000E+03 0.  1.
       -6    1    1    2    0  505 -0.66795899231E+02 -0.95183712134E+02 -0.31697393840E+03  0.37841897261E+03  0.17090000000E+03 0. -1.
       21    1    1    2  503  502 -0.33844220523E+02  0.78516594545E+01  0.88629449556E+01  0.35855705436E+02  0.00000000000E+00 0. -1.
       21    1    1    2  505  504 -0.13544510641E+02  0.60375308435E+02 -0.58531016013E+03  0.58857167379E+03  0.00000000000E+00 0.  1.
#  0.1954511E+03  0.1954511E+03  0.3474305E+02  0.6201278E+02
</event>
<event>
 5   1  0.1000000E+01  0.1825529E+03  0.7555679E-02  0.1171062E+00
       21   -1    0    0  501  502  0.00000000000E+00  0.00000000000E+00  0.91945448528E+03  0.91945448528E+03  0.00000000000E+00 0. -1.
       21   -1    0    0  503  504  0.00000000000E+00  0.00000000000E+00 -0.44854327091E+03  0.44854327091E+03  0.00000000000E+00 0. -1.
        6    1    1    2  501    0  0.44642355185E+02  0.60173178724E+02  0.55538509977E+03  0.58589518718E+03  0.17090000000E+03 0. -1.
       -6    1    1    2    0  504 -0.34867283277E+02 -0.33927681500E+02  0.32567652255E+03  0.37099706516E+03  0.17090000000E+03 0.  1.
       21    1    1    2  503  502 -0.97750719074E+01 -0.26245497224E+02 -0.41015040795E+03  0.41110550385E+03  0.00000000000E+00 0. -1.
#  0.1825529E+03  0.1825529E+03  0.2800675E+02
</event>
<event>
 5   1  0.1000000E+01  0.2150206E+03  0.7555679E-02  0.1144296E+00
       21   -1    0    0  501  502  0.00000000000E+00  0.00000000000E+00  0.33263773909E+03  0.33263773909E+03  0.00000000000E+00 0. -1.
       21   -1    0    0  503  504  0.00000000000E+00  0.00000000000E+00 -0.21716149073E+03  0.21716149073E+03  0.00000000000E+00 0.  1.
        6    1    1    2  501    0 -0.11060391571E+03 -0.30921680670E+02  0.11907522940E+03  0.23785520125E+03  0.17090000000E+03 0. -1.
       -6    1    1    2    0  504  0.12315835240E+03  0.62409200936E+02 -0.75612698138E+02  0.23235098073E+03  0.17090000000E+03 0.  1.
       21    1    1    2  503  502 -0.12554436687E+02 -0.31487520267E+02  0.72013717106E+02  0.79593047840E+02  0.00000000000E+00 0. -1.
#  0.2150206E+03  0.2150206E+03  0.3389805E+02
</event>
<event>
 6   2  0.1000000E+01  0.3231452E+03  0.7555679E-02  0.1082712E+00
       21   -1    0    0  503  504  0.00000000000E+00  0.00000000000E+00  0.45721166272E+03  0.45721166272E+03  0.00000000000E+00 0. -1.
        1   -1    0    0  504    0  0.00000000000E+00  0.00000000000E+00 -0.55919981300E+03  0.55919981300E+03  0.00000000000E+00 0. -1.
        6    1    1    2  503    0  0.26000931242E+03  0.42955870820E+02  0.25238678859E+03  0.40293417630E+03  0.17090000000E+03 0. -1.
       -6    1    1    2    0  502 -0.31231777935E+03 -0.27610283621E+02 -0.15345221676E+03  0.38866324226E+03  0.17090000000E+03 0.  1.
        1    1    1    2  501    0  0.69011260704E+02  0.10726938784E+02 -0.13591344256E+03  0.15280734665E+03  0.00000000000E+00 0. -1.
       21    1    1    2  502  501 -0.16702793774E+02 -0.26072525984E+02 -0.65009279537E+02  0.72006710500E+02  0.00000000000E+00 0. -1.
#  0.3231452E+03  0.3231452E+03  0.6417017E+02  0.3096385E+02
</event>
<event>
 5   1  0.1000000E+01  0.1759696E+03  0.7555679E-02  0.1177240E+00
       21   -1    0    0  502  503  0.00000000000E+00  0.00000000000E+00  0.31624633292E+03  0.31624633292E+03  0.00000000000E+00 0.  1.
        2   -1    0    0  503    0  0.00000000000E+00  0.00000000000E+00 -0.14028317405E+04  0.14028317405E+04  0.00000000000E+00 0.  1.
        6    1    1    2  502    0  0.13715768958E+02  0.42039175717E+02  0.17954291526E+03  0.25178936243E+03  0.17090000000E+03 0.  1.
       -6    1    1    2    0  501 -0.52193911200E+02 -0.13457782770E+02  0.19960666148E+02  0.18030683425E+03  0.17090000000E+03 0. -1.
        2    1    1    2  501    0  0.38478142242E+02 -0.28581392947E+02 -0.12860889890E+04  0.12869818767E+04  0.00000000000E+00 0.  1.
#  0.1759696E+03  0.1759696E+03  0.4793186E+02
</event>
<event>
 5   1  0.1000000E+01  0.1732926E+03  0.7555679E-02  0.1179838E+00
       21   -1    0    0  503  504  0.00000000000E+00  0.00000000000E+00  0.64890321398E+03  0.64890321398E+03  0.00000000000E+00 0.  1.
       21   -1    0    0  502  503  0.00000000000E+00  0.00000000000E+00 -0.29303507037E+03  0.29303507037E+03  0.00000000000E+00 0.  1.
        6    1    1    2  501    0  0.35992452972E+02  0.44831263017E+02 -0.71255999067E+02  0.19388018521E+03  0.17090000000E+03 0.  1.
       -6    1    1    2    0  504 -0.92533674874E+01 -0.24458779094E+02  0.57291954496E+03  0.59843752529E+03  0.17090000000E+03 0.  1.
       21    1    1    2  502  501 -0.26739085484E+02 -0.20372483922E+02 -0.14579540228E+03  0.14962057385E+03  0.00000000000E+00 0.  1.
#  0.1732926E+03  0.1732926E+03  0.3361572E+02
</event>
<event>
 5   1  0.1000000E+01  0.1854383E+03  0.7555679E-02  0.1168443E+00
       21   -1    0    0  501  502  0.00000000000E+00  0.00000000000E+00  0.67137241065E+02  0.67137241065E+02  0.00000000000E+00 0. -1.
        2   -1    0    0  503    0  0.00000000000E+00  0.00000000000E+00 -0.75639480826E+03  0.75639480826E+03  0.00000000000E+00 0. -1.
        6    1    1    2  503    0  0.77396938846E+02  0.38964823392E+02 -0.35598317945E+03  0.40427636297E+03  0.17090000000E+03 0. -1.
       -6    1    1    2    0  502 -0.50356632565E+02 -0.40961712673E+02 -0.15720160313E+03  0.24110745815E+03  0.17090000000E+03 0. -1.
        2    1    1    2  501    0 -0.27040306281E+02  0.19968892804E+01 -0.17607278462E+03  0.17814822821E+03  0.00000000000E+00 0. -1.
#  0.1854383E+03  0.1854383E+03  0.2711394E+02
</event>
<event>
 5   1  0.1000000E+01  0.1839847E+03  0.7555679E-02  0.1169756E+00
       21   -1    0    0  503  504  0.00000000000E+00  0.00000000000E+00  0.84890404931E+02  0.84890404931E+02  0.00000000000E+00 0.  1.
       21   -1    0    0  501  502  0.00000000000E+00  0.00000000000E+00 -0.53899128947E+03  0.53899128947E+03  0.00000000000E+00 0. -1.
        6    1    1    2  501    0 -0.38624650809E+02  0.69761981753E+02 -0.14727400103E+03  0.23928025227E+03  0.17090000000E+03 0.  1.
       -6    1    1    2    0  504  0.43986075022E+02 -0.44850971498E+02 -0.30938924448E+03  0.35899150274E+03  0.17090000000E+03 0. -1.
       21    1    1    2  503  502 -0.53614242136E+01 -0.24911010255E+02  0.25623609746E+01  0.25609939384E+02  0.00000000000E+00 0.  1.
#  0.1839847E+03  0.1839847E+03  0.2548143E+02
</event>
<event>
 6   2  0.1000000E+01  0.1900786E+03  0.7555679E-02  0.1164340E+00
        3   -1    0    0  504    0  0.00000000000E+00  0.00000000000E+00  0.50740301835E+03  0.50740301835E+03  0.00000000000E+00 0. -1.
       21   -1    0    0  503  504  0.00000000000E+00  0.00000000000E+00 -0.32379858824E+03  0.32379858824E+03  0.00000000000E+00 0.  1.
        6    1    1    2  503    0 -0.81324578741E+02 -0.58711108481E+01 -0.19518483728E+03  0.27194133146E+03  0.17090000000E+03 0. -1.
       -6    1    1    2    0  502  0.87235877253E+02 -0.49983713078E+02  0.29010612198E+02  0.20039185481E+03  0.17090000000E+03 0.  1.
        3    1    1    2  501    0 -0.28131430841E+02  0.11081428484E+02  0.13731942725E+03  0.14060867881E+03  0.00000000000E+00 0. -1.
       21    1    1    2  502  501  0.22220132329E+02  0.44773395442E+02  0.21245922795E+03  0.21825974150E+03  0.00000000000E+00 0. -1.
#  0.1900786E+03  0.1900786E+03  0.3023533E+02  0.5157524E+02
</event>
<event>
 5   1  0.1000000E+01  0.1799046E+03  0.7555679E-02  0.1173512E+00
       21   -1    0    0  501  502  0.00000000000E+00  0.00000000000E+00  0.14077634700E+03  0.14077634700E+03  0.00000000000E+00 0.  1.
       21   -1    0    0  502  503  0.00000000000E+00  0.00000000000E+00 -0.53175922193E+03  0.53175922193E+03  0.00000000000E+00 0.  1.
        6    1    1    2  501    0 -0.65089785348E+02 -0.36143808062E+02  0.19443179783E+01  0.18642329627E+03  0.17090000000E+03 0.  1.
       -6    1    1    2    0  504  0.25952330341E+02 -0.16850033210E+01 -0.12656959127E+03  0.21424993377E+03  0.17090000000E+03 0.  1.
       21    1    1    2  504  503  0.39137455007E+02  0.37828811383E+02 -0.26635760163E+03  0.27186233888E+03  0.00000000000E+00 0.  1.
#  0.1799046E+03  0.1799046E+03  0.5443124E+02
</event>
<event>
 5   1  0.1000000E+01  0.1849887E+03  0.7555679E-02  0.1168848E+00
       21   -1    0    0  501  502  0.00000000000E+00  0.00000000000E+00  0.12686004899E+04  0.12686004899E+04  0.00000000000E+00 0. -1.
       21   -1    0    0  502  503  0.00000000000E+00  0.00000000000E+00 -0.32864147099E+03  0.32864147099E+03  0.00000000000E+00 0.  1.
        6    1    1    2  501    0 -0.31537600023E+02 -0.40974482765E+02  0.92522862520E+03  0.94229949981E+03  0.17090000000E+03 0. -1.
       -6    1    1    2    0  504  0.78885894502E+02  0.16788499387E+03  0.26781663300E+03  0.36788709468E+03  0.17090000000E+03 0. -1.
       21    1    1    2  504  503 -0.47348294479E+02 -0.12691051111E+03 -0.25308623933E+03  0.28705536636E+03  0.00000000000E+00 0.  1.
#  0.1849887E+03  0.1849887E+03  0.1354553E+03
</event>
<event>
 5   1  0.1000000E+01  0.1823704E+03  0.7555679E-02  0.1171229E+00
       21   -1    0    0  503  504  0.00000000000E+00  0.00000000000E+00  0.35626690237E+03  0.35626690237E+03  0.00000000000E+00 0. -1.
       21   -1    0    0  501  502  0.00000000000E+00  0.00000000000E+00 -0.31877777388E+03  0.31877777388E+03  0.00000000000E+00 0.  1.
        6    1    1    2  501    0  0.27556926821E+01  0.39554334536E+02 -0.17400708652E+02  0.17630012446E+03  0.17090000000E+03 0.  1.
       -6    1    1    2    0  504 -0.31951902136E+02 -0.64782211168E+02  0.24355410413E+03  0.30617490193E+03  0.17090000000E+03 0. -1.
       21    1    1    2  503  502  0.29196209454E+02  0.25227876632E+02 -0.18866426699E+03  0.19256964986E+03  0.00000000000E+00 0.  1.
#  0.1823704E+03  0.1823704E+03  0.3858581E+02
</event>
<event>
 6   2  0.1000000E+01  0.1991195E+03  0.7555679E-02  0.1156704E+00
       21   -1    0    0  501  502  0.00000000000E+00  0.00000000000E+00  0.27613603361E+03  0.27613603361E+03  0.00000000000E+00 0. -1.
        2   -1    0    0  504    0  0.00000000000E+00  0.00000000000E+00 -0.17104470933E+04  0.17104470933E+04  0.00000000000E+00 0.  1.
        6    1    1    2  503    0  0.12104433416E+02 -0.43909023441E+02 -0.56948056754E+02  0.18580745630E+03  0.17090000000E+03 0. -1.
       -6    1    1    2    0  502 -0.14655321798E+03 -0.48009926990E+01  0.14637627526E+03  0.26857721272E+03  0.17090000000E+03 0. -1.
        2    1    1    2  501    0  0.13094153669E+03  0.21058502952E+02 -0.12919162136E+04  0.12987057594E+04  0.00000000000E+00 0.  1.
       21    1    1    2  504  503  0.35072478770E+01  0.27651513187E+02 -0.23182306460E+03  0.23349269849E+03  0.00000000000E+00 0. -1.
#  0.1991195E+03  0.1991195E+03  0.1414634E+03  0.2787305E+02
</event>
<event>
 5   1  0.1000000E+01  0.2143005E+03  0.7555679E-02  0.1144832E+00
       21   -1    0    0  501  502  0.00000000000E+00  0.00000000000E+00  0.20020318307E+03  0.20020318307E+03  0.00000000000E+00 0.  1.
       21   -1    0    0  503  504  0.00000000000E+00  0.00000000000E+00 -0.38585028676E+03  0.38585028676E+03  0.00000000000E+00 0. -1.
        6    1    1    2  501    0  0.12732494462E+03  0.27103113460E+02  0.64074881570E+02  0.22418434542E+03  0.17090000000E+03 0.  1.
       -6    1    1    2    0  504 -0.13022490218E+03  0.86924872658E+01 -0.16893414611E+03  0.27345866270E+03  0.17090000000E+03 0. -1.
       21    1    1    2  503  502  0.28999575637E+01 -0.35795600726E+02 -0.80787839156E+02  0.88410461715E+02  0.00000000000E+00 0. -1.
#  0.2143005E+03  0.2143005E+03  0.3591288E+02
</event>
<event>
 6   2  0.1000000E+01  0.2416417E+03  0.7555679E-02  0.1125946E+00
       21   -1    0    0  502  503  0.00000000000E+00  0.00000000000E+00  0.64499081715E+03  0.64499081715E+03  0.00000000000E+00 0.  1.
        2   -1    0    0  504    0  0.00000000000E+00  0.00000000000E+00 -0.37772588827E+03  0.37772588827E+03  0.00000000000E+00 0. -1.
        6    1    1    2  502    0 -0.34321556635E+02  0.16539693643E+03  0.53807296656E+03  0.58929062709E+03  0.17090000000E+03 0.  1.
       -6    1    1    2    0  501  0.26252266072E+02 -0.18480822243E+03 -0.13039068688E+03  0.28469598132E+03  0.17090000000E+03 0. -1.
        2    1    1    2  501    0  0.21221430708E+02  0.60696803152E+00 -0.10021978913E+03  0.10244375854E+03  0.00000000000E+00 0. -1.
       21    1    1    2  504  503 -0.13152140144E+02  0.18804317969E+02 -0.40197561667E+02  0.46286338466E+02  0.00000000000E+00 0. -1.
#  0.2416417E+03  0.2416417E+03  0.2123011E+02  0.2130380E+02
</event>
<event>
 6   2  0.1000000E+01  0.2006402E+03  0.7555679E-02  0.1155464E+00
       21   -1    0    0  502  503  0.00000000000E+00  0.00000000000E+00  0.30126353956E+03  0.30126353956E+03  0.00000000000E+00 0. -1.
       21   -1    0    0  504  505  0.00000000000E+00  0.00000000000E+00 -0.51173152863E+03  0.51173152863E+03  0.00000000000E+00 0.  1.
        6    1    1    2  501    0 -0.58736029759E+02  0.82267867560E+02  0.14190944557E+03  0.24405537070E+03  0.17090000000E+03 0. -1.
       -6    1    1    2    0  505  0.90407715290E+02 -0.43997746964E+02 -0.85444151198E+02  0.21590940159E+03  0.17090000000E+03 0.  1.
       21    1    1    2  502  501 -0.28242772852E+02 -0.91383652070E+01  0.37140167311E+02  0.47545304341E+02  0.00000000000E+00 0. -1.
       21    1    1    2  504  503 -0.34289126785E+01 -0.29131755389E+02 -0.30407345075E+03  0.30548499155E+03  0.00000000000E+00 0.  1.
#  0.2006402E+03  0.2006402E+03  0.2999936E+02  0.2933286E+02
</event>
</LesHouchesEvents>
